-0.494398 	0.0613128 	7.83327e-18 	0.953754 	0.986601
-0.493149 	0.0612351 	7.39971e-18 	0.92794 	0.9789
-0.491899 	0.0611573 	9.04782e-18 	0.904064 	0.97162
-0.490649 	0.0610796 	1.19102e-17 	0.878945 	0.963864
-0.489399 	0.0610019 	1.09563e-17 	0.852255 	0.955505
-0.488149 	0.0609241 	9.56859e-18 	0.832258 	0.949099
-0.486899 	0.0608464 	9.56871e-18 	0.816729 	0.944015
-0.48565 	0.0607686 	6.09938e-18 	0.799003 	0.93817
-0.4844 	0.0606909 	4.88519e-18 	0.776527 	0.930743
-0.48315 	0.0606132 	5.40573e-18 	0.758341 	0.924637
-0.4819 	0.0605354 	2.63029e-18 	0.746019 	0.920392
-0.48065 	0.0604577 	7.22214e-19 	0.733579 	0.916043
-0.4794 	0.06038 	4.10504e-18 	0.718814 	0.910877
-0.478151 	0.0603022 	8.87565e-18 	0.706829 	0.906753
-0.476901 	0.0602245 	1.02635e-17 	0.69617 	0.903005
-0.475651 	0.0601467 	1.32127e-17 	0.682872 	0.89813
-0.474401 	0.060069 	1.59016e-17 	0.671272 	0.893816
-0.473151 	0.0599913 	1.42538e-17 	0.666654 	0.892265
-0.471902 	0.0599135 	1.18253e-17 	0.661779 	0.890575
-0.470652 	0.0598358 	1.59887e-17 	0.653047 	0.887375
-0.469402 	0.059758 	2.06726e-17 	0.63659 	0.881092
-0.468152 	0.0596803 	2.27544e-17 	0.633096 	0.879895
-0.466902 	0.0596026 	2.13667e-17 	0.634882 	0.880712
-0.465652 	0.0595248 	2.10199e-17 	0.634278 	0.880541
-0.464403 	0.0594471 	2.53568e-17 	0.628628 	0.878435
-0.463153 	0.0593693 	2.76988e-17 	0.618048 	0.874362
-0.461903 	0.0592916 	3.15153e-17 	0.615396 	0.873508
-0.460653 	0.0592139 	3.299e-17 	0.617091 	0.874316
-0.459403 	0.0591361 	3.07349e-17 	0.619328 	0.875353
-0.458154 	0.0590584 	3.24698e-17 	0.618222 	0.874891
-0.456904 	0.0589807 	3.81078e-17 	0.613207 	0.872836
-0.455654 	0.0589029 	4.35723e-17 	0.612289 	0.872542
-0.454404 	0.0588252 	4.88633e-17 	0.615121 	0.873845
-0.453154 	0.0587474 	5.24196e-17 	0.620935 	0.876382
-0.451904 	0.0586697 	5.27667e-17 	0.621409 	0.876568
-0.450655 	0.058592 	5.24198e-17 	0.619186 	0.875581
-0.449405 	0.0585142 	5.10322e-17 	0.618788 	0.875428
-0.448155 	0.0584365 	4.96445e-17 	0.620948 	0.876381
-0.446905 	0.0583587 	5.05987e-17 	0.627835 	0.879313
-0.445655 	0.058281 	5.40683e-17 	0.635079 	0.882131
-0.444405 	0.0582033 	5.69307e-17 	0.636081 	0.882444
-0.443156 	0.0581255 	5.72778e-17 	0.636229 	0.882493
-0.441906 	0.0580478 	5.73646e-17 	0.637251 	0.882886
-0.440656 	0.05797 	5.80586e-17 	0.640845 	0.884306
-0.439406 	0.0578923 	5.69312e-17 	0.645857 	0.886313
-0.438156 	0.0578146 	5.49364e-17 	0.651034 	0.888297
-0.436907 	0.0577368 	5.19874e-17 	0.65413 	0.889309
-0.435657 	0.0576591 	4.99926e-17 	0.656118 	0.889936
-0.434407 	0.0575814 	4.72172e-17 	0.659997 	0.891335
-0.433157 	0.0575036 	4.2707e-17 	0.664647 	0.893153
-0.431907 	0.0574259 	4.33143e-17 	0.665966 	0.893679
-0.430657 	0.0573481 	4.36614e-17 	0.665413 	0.893451
-0.429408 	0.0572704 	4.42686e-17 	0.665202 	0.893337
-0.428158 	0.0571927 	4.30545e-17 	0.667966 	0.894296
-0.426908 	0.0571149 	4.44424e-17 	0.675654 	0.897008
-0.425658 	0.0570372 	4.91262e-17 	0.678387 	0.89795
-0.424408 	0.0569594 	4.98202e-17 	0.677754 	0.897705
-0.423159 	0.0568817 	5.10347e-17 	0.676881 	0.897364
-0.421909 	0.056804 	5.41573e-17 	0.677224 	0.897493
-0.420659 	0.0567262 	5.30298e-17 	0.678769 	0.898062
-0.419409 	0.0566485 	4.94738e-17 	0.680334 	0.898551
-0.418159 	0.0565707 	5.01678e-17 	0.681244 	0.898787
-0.416909 	0.056493 	4.8173e-17 	0.681868 	0.898988
-0.41566 	0.0564153 	4.75659e-17 	0.683004 	0.899436
-0.41441 	0.0563375 	4.67854e-17 	0.684912 	0.900144
-0.41316 	0.0562598 	4.34028e-17 	0.685179 	0.900192
-0.41191 	0.0561821 	4.54846e-17 	0.684944 	0.90008
-0.41066 	0.0561043 	5.10358e-17 	0.68445 	0.899837
-0.409411 	0.0560266 	5.15564e-17 	0.684483 	0.899837
-0.408161 	0.0559488 	4.79136e-17 	0.685246 	0.900104
-0.406911 	0.0558711 	4.72198e-17 	0.687189 	0.900826
-0.405661 	0.0557934 	4.99087e-17 	0.688287 	0.901254
-0.404411 	0.0557156 	5.0863e-17 	0.688263 	0.901247
-0.403161 	0.0556379 	4.78273e-17 	0.688294 	0.901256
-0.401912 	0.0555601 	4.72203e-17 	0.688682 	0.901389
-0.400662 	0.0554824 	4.86949e-17 	0.689393 	0.901638
-0.399412 	0.0554047 	4.88685e-17 	0.689768 	0.901785
-0.398162 	0.0553269 	4.59196e-17 	0.690078 	0.901914
-0.396912 	0.0552492 	4.09757e-17 	0.690601 	0.902117
-0.395662 	0.0551714 	3.55982e-17 	0.692378 	0.902775
-0.394413 	0.0550937 	2.80523e-17 	0.694391 	0.903472
-0.393163 	0.055016 	2.64912e-17 	0.694602 	0.903532
-0.391913 	0.0549382 	2.72719e-17 	0.694585 	0.903529
-0.390663 	0.0548605 	2.74455e-17 	0.694651 	0.903558
-0.389413 	0.0547828 	3.00477e-17 	0.69493 	0.903674
-0.388164 	0.054705 	3.13489e-17 	0.69545 	0.903883
-0.386914 	0.0546273 	3.19561e-17 	0.696366 	0.904226
-0.385664 	0.0545495 	3.13491e-17 	0.697537 	0.904625
-0.384414 	0.0544718 	3.21298e-17 	0.698353 	0.904888
-0.383164 	0.0543941 	3.26504e-17 	0.698812 	0.90504
-0.381914 	0.0543163 	3.04821e-17 	0.698966 	0.905112
-0.380665 	0.0542386 	3.27374e-17 	0.698972 	0.905127
-0.379415 	0.0541608 	3.88957e-17 	0.698954 	0.905128
-0.378165 	0.0540831 	4.19316e-17 	0.699102 	0.905184
-0.376915 	0.0540054 	4.0544e-17 	0.699486 	0.905301
-0.375665 	0.0539276 	3.80287e-17 	0.700096 	0.905487
-0.374416 	0.0538499 	3.52533e-17 	0.700478 	0.905624
-0.373166 	0.0537721 	2.82278e-17 	0.700516 	0.905644
-0.371916 	0.0536944 	2.59728e-17 	0.700573 	0.905678
-0.370666 	0.0536167 	2.86617e-17 	0.700761 	0.90575
-0.369416 	0.0535389 	2.90088e-17 	0.700777 	0.905749
-0.368166 	0.0534612 	2.97028e-17 	0.70065 	0.905684
-0.366917 	0.0533835 	2.76212e-17 	0.70061 	0.905656
-0.365667 	0.0533057 	2.33713e-17 	0.700679 	0.905674
-0.364417 	0.053228 	1.74733e-17 	0.700725 	0.905707
-0.363167 	0.0531502 	1.13152e-17 	0.700714 	0.905708
-0.361917 	0.0530725 	1.33102e-17 	0.700485 	0.905633
-0.360667 	0.0529948 	1.66063e-17 	0.700091 	0.905483
-0.359418 	0.052917 	1.1489e-17 	0.699951 	0.905418
-0.358168 	0.0528393 	3.59613e-18 	0.699858 	0.905378
-0.356918 	0.0527615 	-2.99571e-18 	0.69973 	0.905331
-0.355668 	0.0526838 	-3.16906e-18 	0.699535 	0.905264
-0.354418 	0.0526061 	6.4745e-19 	0.699106 	0.905116
-0.353169 	0.0525283 	2.13888e-19 	0.698258 	0.90481
-0.351919 	0.0524506 	-2.47482e-18 	0.697487 	0.904534
-0.350669 	0.0523728 	-4.20942e-18 	0.697231 	0.904444
-0.349419 	0.0522951 	-2.73479e-18 	0.697165 	0.904416
-0.348169 	0.0522174 	2.72971e-18 	0.696979 	0.904335
-0.346919 	0.0521396 	6.37275e-18 	0.696338 	0.90408
-0.34567 	0.0520619 	2.12279e-18 	0.695755 	0.903865
-0.34442 	0.0519842 	-4.54937e-20 	0.695516 	0.903786
-0.34317 	0.0519064 	5.93942e-18 	0.695502 	0.903774
-0.34192 	0.0518287 	9.75593e-18 	0.69548 	0.903756
-0.34067 	0.0517509 	7.15396e-18 	0.695208 	0.903631
-0.339421 	0.0516732 	8.36839e-18 	0.694331 	0.903265
-0.338171 	0.0515955 	7.58788e-18 	0.693534 	0.90297
-0.336921 	0.0515177 	2.29709e-18 	0.693414 	0.902935
-0.335671 	0.05144 	3.25131e-18 	0.693434 	0.902945
-0.334421 	0.0513622 	5.5933e-18 	0.693402 	0.902935
-0.333171 	0.0512845 	4.98627e-18 	0.693145 	0.902844
-0.331922 	0.0512068 	1.08326e-18 	0.692715 	0.902681
-0.330672 	0.051129 	-1.77892e-18 	0.692287 	0.902506
-0.329422 	0.0510513 	-4.46762e-18 	0.692075 	0.90241
-0.328172 	0.0509735 	-6.54917e-18 	0.692029 	0.902387
-0.326922 	0.0508958 	-4.81433e-18 	0.69197 	0.902361
-0.325672 	0.0508181 	-2.29886e-18 	0.691841 	0.902306
-0.324423 	0.0507403 	-2.55895e-18 	0.691764 	0.902283
-0.323173 	0.0506626 	-4.03335e-18 	0.691761 	0.902291
-0.321923 	0.0505849 	-4.90059e-18 	0.691757 	0.902291
-0.320673 	0.0505071 	-6.11478e-18 	0.691707 	0.902265
-0.319423 	0.0504294 	-4.46668e-18 	0.691672 	0.902241
-0.318174 	0.0503516 	-3.33899e-18 	0.691665 	0.902232
-0.316924 	0.0502739 	-3.33887e-18 	0.691707 	0.902245
-0.315674 	0.0501962 	-3.16528e-18 	0.69209 	0.902383
-0.314424 	0.0501184 	-7.50197e-18 	0.692384 	0.902449
-0.313174 	0.0500407 	-1.02774e-17 	0.692429 	0.902445
-0.311924 	0.0499629 	-7.93542e-18 	0.69243 	0.90244
-0.310675 	0.0498852 	-6.0271e-18 	0.69226 	0.90237
-0.309425 	0.0498075 	-5.41983e-18 	0.692227 	0.902361
-0.308175 	0.0497297 	-5.24624e-18 	0.692499 	0.902473
-0.306925 	0.049652 	-8.62883e-18 	0.692823 	0.902548
-0.305675 	0.0495742 	-1.10573e-17 	0.692864 	0.902538
-0.304426 	0.0494965 	-1.14042e-17 	0.69287 	0.902528
-0.303176 	0.0494188 	-1.31388e-17 	0.692832 	0.902502
-0.301926 	0.049341 	-1.64346e-17 	0.692604 	0.902413
-0.300676 	0.0492633 	-2.12917e-17 	0.692563 	0.902405
-0.299426 	0.0491856 	-2.39804e-17 	0.692777 	0.90249
-0.298176 	0.0491078 	-2.50211e-17 	0.692921 	0.90251
-0.296927 	0.0490301 	-2.22455e-17 	0.692927 	0.9025
-0.295677 	0.0489523 	-1.56534e-17 	0.692918 	0.902484
-0.294427 	0.0488746 	-1.15767e-17 	0.692859 	0.902445
-0.293177 	0.0487969 	-8.97448e-18 	0.692707 	0.902393
-0.291927 	0.0487191 	-6.1988e-18 	0.692677 	0.90239
-0.290677 	0.0486414 	-8.45383e-18 	0.692694 	0.902396
-0.289428 	0.0485636 	-1.11425e-17 	0.692696 	0.902393
-0.288178 	0.0484859 	-1.56527e-17 	0.692688 	0.902382
-0.286928 	0.0484082 	-2.44129e-17 	0.692668 	0.90236
-0.285678 	0.0483304 	-2.71884e-17 	0.692582 	0.90231
-0.284428 	0.0482527 	-2.67546e-17 	0.692417 	0.902253
-0.283179 	0.0481749 	-3.05708e-17 	0.692337 	0.902236
-0.281929 	0.0480972 	-2.97901e-17 	0.692342 	0.902239
-0.280679 	0.0480195 	-2.62338e-17 	0.692362 	0.902244
-0.279429 	0.0479417 	-2.79684e-17 	0.692373 	0.902243
-0.278179 	0.047864 	-2.97897e-17 	0.692372 	0.902237
-0.276929 	0.0477863 	-2.82284e-17 	0.692326 	0.902215
-0.27568 	0.0477085 	-2.78813e-17 	0.69232 	0.902216
-0.27443 	0.0476308 	-3.19578e-17 	0.692356 	0.90223
-0.27318 	0.047553 	-3.53404e-17 	0.692372 	0.902229
-0.27193 	0.0474753 	-3.69883e-17 	0.692372 	0.902223
-0.27068 	0.0473976 	-3.81157e-17 	0.69234 	0.902201
-0.269431 	0.0473198 	-3.80289e-17 	0.692333 	0.902197
-0.268181 	0.0472421 	-3.87226e-17 	0.692418 	0.902232
-0.266931 	0.0471643 	-4.20185e-17 	0.692574 	0.902285
-0.265681 	0.0470866 	-4.42735e-17 	0.6926 	0.902285
-0.264431 	0.0470089 	-4.71357e-17 	0.692603 	0.902284
-0.263181 	0.0469311 	-5.12122e-17 	0.692596 	0.902281
-0.261932 	0.0468534 	-5.32937e-17 	0.692581 	0.902274
-0.260682 	0.0467756 	-5.2513e-17 	0.692554 	0.902262
-0.259432 	0.0466979 	-5.10383e-17 	0.692519 	0.902249
-0.258182 	0.0466202 	-5.05178e-17 	0.692464 	0.902229
-0.256932 	0.0465424 	-5.05177e-17 	0.692365 	0.902193
-0.255682 	0.0464647 	-5.38135e-17 	0.692245 	0.902146
-0.254433 	0.046387 	-5.66757e-17 	0.692116 	0.902089
-0.253183 	0.0463092 	-5.61552e-17 	0.692047 	0.902046
-0.251933 	0.0462315 	-5.12978e-17 	0.692027 	0.902022
-0.250683 	0.0461537 	-5.01702e-17 	0.692018 	0.902009
-0.249433 	0.046076 	-5.32058e-17 	0.692013 	0.902003
-0.248184 	0.0459983 	-5.19914e-17 	0.692008 	0.902
-0.246934 	0.0459205 	-5.40729e-17 	0.691981 	0.901993
-0.245684 	0.0458428 	-5.71086e-17 	0.691896 	0.901966
-0.244434 	0.045765 	-5.62411e-17 	0.691883 	0.901961
-0.243184 	0.0456873 	-5.63277e-17 	0.691953 	0.901992
-0.241934 	0.0456096 	-6.10114e-17 	0.692193 	0.90209
-0.240685 	0.0455318 	-6.43939e-17 	0.692467 	0.902163
-0.239435 	0.0454541 	-6.51745e-17 	0.692502 	0.902157
-0.238185 	0.0453763 	-6.77764e-17 	0.692501 	0.902148
-0.236935 	0.0452986 	-7.05519e-17 	0.692504 	0.902148
-0.235685 	0.0452209 	-6.77762e-17 	0.692488 	0.902143
-0.234436 	0.0451431 	-6.62148e-17 	0.692457 	0.902136
-0.233186 	0.0450654 	-6.86433e-17 	0.692452 	0.902139
-0.231936 	0.0449877 	-6.55207e-17 	0.692453 	0.902145
-0.230686 	0.0449099 	-6.26583e-17 	0.692475 	0.902161
-0.229436 	0.0448322 	-6.31786e-17 	0.692549 	0.902191
-0.228186 	0.0447544 	-6.11835e-17 	0.692573 	0.902198
-0.226937 	0.0446767 	-5.78007e-17 	0.692566 	0.902195
-0.225687 	0.044599 	-5.61526e-17 	0.692553 	0.902189
-0.224437 	0.0445212 	-5.4678e-17 	0.692538 	0.902184
-0.223187 	0.0444435 	-5.46779e-17 	0.692545 	0.902187
-0.221937 	0.0443657 	-5.76268e-17 	0.692572 	0.902195
-0.220687 	0.044288 	-5.92746e-17 	0.692578 	0.902193
-0.219438 	0.0442103 	-5.75398e-17 	0.69257 	0.902187
-0.218188 	0.0441325 	-5.68458e-17 	0.692566 	0.90218
-0.216938 	0.0440548 	-5.76263e-17 	0.692573 	0.902173
-0.215688 	0.043977 	-5.97078e-17 	0.692575 	0.902163
-0.214438 	0.0438993 	-5.84067e-17 	0.69257 	0.90215
-0.213189 	0.0438216 	-5.52841e-17 	0.692544 	0.902128
-0.211939 	0.0437438 	-5.25951e-17 	0.69245 	0.902089
-0.210689 	0.0436661 	-4.98194e-17 	0.692397 	0.902071
-0.209439 	0.0435884 	-5.25949e-17 	0.692393 	0.902067
-0.208189 	0.0435106 	-5.6151e-17 	0.692399 	0.902065
-0.206939 	0.0434329 	-5.69315e-17 	0.692404 	0.902061
-0.20569 	0.0433551 	-5.64977e-17 	0.692409 	0.902059
-0.20444 	0.0432774 	-5.69312e-17 	0.6924 	0.902056
-0.20319 	0.0431997 	-6.14414e-17 	0.692428 	0.902068
-0.20194 	0.0431219 	-6.43903e-17 	0.692483 	0.902094
-0.20069 	0.0430442 	-6.47371e-17 	0.692499 	0.902107
-0.199441 	0.0429664 	-6.45635e-17 	0.692511 	0.902115
-0.198191 	0.0428887 	-6.17879e-17 	0.692538 	0.902131
-0.196941 	0.042811 	-6.2048e-17 	0.692585 	0.902143
-0.195691 	0.0427332 	-6.49969e-17 	0.692613 	0.90214
-0.194441 	0.0426555 	-6.71652e-17 	0.69261 	0.902134
-0.193191 	0.0425777 	-6.916e-17 	0.692601 	0.902129
-0.191942 	0.0425 	-7.18487e-17 	0.6926 	0.902129
-0.190692 	0.0424223 	-7.21088e-17 	0.692607 	0.902133
-0.189442 	0.0423445 	-7.36699e-17 	0.692611 	0.902136
-0.188192 	0.0422668 	-7.66188e-17 	0.692612 	0.902137
-0.186942 	0.0421891 	-7.75728e-17 	0.692637 	0.902147
-0.185693 	0.0421113 	-7.68788e-17 	0.692675 	0.902159
-0.184443 	0.0420336 	-7.81797e-17 	0.692681 	0.90216
-0.183193 	0.0419558 	-7.9047e-17 	0.692669 	0.902156
-0.181943 	0.0418781 	-7.38427e-17 	0.69261 	0.902133
-0.180693 	0.0418004 	-7.41028e-17 	0.692471 	0.902083
-0.179443 	0.0417226 	-7.7919e-17 	0.69234 	0.902032
-0.178194 	0.0416449 	-8.02608e-17 	0.692323 	0.902024
-0.176944 	0.0415671 	-8.17352e-17 	0.692348 	0.902033
-0.175694 	0.0414894 	-8.08677e-17 	0.692383 	0.902043
-0.174444 	0.0414117 	-8.15615e-17 	0.692387 	0.902044
-0.173194 	0.0413339 	-8.15614e-17 	0.69239 	0.902045
-0.171944 	0.0412562 	-7.96531e-17 	0.692408 	0.902051
-0.170695 	0.0411784 	-7.99999e-17 	0.692468 	0.902073
-0.169445 	0.0411007 	-8.35559e-17 	0.692617 	0.902126
-0.168195 	0.041023 	-8.67651e-17 	0.69282 	0.902201
-0.166945 	0.0409452 	-8.71119e-17 	0.692874 	0.90223
-0.165695 	0.0408675 	-8.71118e-17 	0.692883 	0.902235
-0.164446 	0.0407898 	-8.40759e-17 	0.692887 	0.902236
-0.163196 	0.040712 	-7.69634e-17 	0.692889 	0.902236
-0.161946 	0.0406343 	-7.63561e-17 	0.692887 	0.902234
-0.160696 	0.0405565 	-7.89581e-17 	0.692861 	0.902223
-0.159446 	0.0404788 	-7.49681e-17 	0.692805 	0.902202
-0.158196 	0.0404011 	-6.88965e-17 	0.692748 	0.902179
-0.156947 	0.0403233 	-6.57739e-17 	0.69269 	0.902152
-0.155697 	0.0402456 	-6.36053e-17 	0.69264 	0.90212
-0.154447 	0.0401678 	-6.30848e-17 	0.692626 	0.902103
-0.153197 	0.0400901 	-6.60337e-17 	0.692623 	0.902096
-0.151947 	0.0400124 	-6.81153e-17 	0.69262 	0.902092
-0.150698 	0.0399346 	-6.88958e-17 	0.692619 	0.902092
-0.149448 	0.0398569 	-6.98498e-17 	0.692623 	0.902095
-0.148198 	0.0397791 	-7.18446e-17 	0.692629 	0.902102
-0.146948 	0.0397014 	-7.39261e-17 	0.692632 	0.902107
-0.145698 	0.0396237 	-7.61811e-17 	0.69263 	0.902107
-0.144448 	0.0395459 	-7.50535e-17 	0.692619 	0.902104
-0.143199 	0.0394682 	-7.31451e-17 	0.692589 	0.902094
-0.141949 	0.0393905 	-7.42726e-17 	0.692535 	0.902072
-0.140699 	0.0393127 	-7.60939e-17 	0.692497 	0.902047
-0.139449 	0.039235 	-7.8349e-17 	0.692486 	0.902037
-0.138199 	0.0391572 	-7.99101e-17 	0.692483 	0.902035
-0.136949 	0.0390795 	-7.91294e-17 	0.692483 	0.902035
-0.1357 	0.0390018 	-7.71343e-17 	0.692489 	0.902037
-0.13445 	0.038924 	-7.59199e-17 	0.692528 	0.902054
-0.1332 	0.0388463 	-7.67004e-17 	0.692597 	0.902084
-0.13195 	0.0387685 	-7.81748e-17 	0.692591 	0.902084
-0.1307 	0.0386908 	-7.88686e-17 	0.692576 	0.902084
-0.129451 	0.0386131 	-7.60061e-17 	0.692577 	0.902087
-0.128201 	0.0385353 	-7.20162e-17 	0.692616 	0.902107
-0.126951 	0.0384576 	-7.21895e-17 	0.692681 	0.902134
-0.125701 	0.0383798 	-7.06282e-17 	0.692692 	0.902136
-0.124451 	0.0383021 	-7.0628e-17 	0.692695 	0.902136
-0.123201 	0.0382244 	-7.31433e-17 	0.692689 	0.902133
-0.121952 	0.0381466 	-7.50513e-17 	0.692652 	0.902116
-0.120702 	0.0380689 	-7.77401e-17 	0.692551 	0.902073
-0.119452 	0.0379912 	-8.0342e-17 	0.69242 	0.90202
-0.118202 	0.0379134 	-8.19899e-17 	0.692363 	0.901996
-0.116952 	0.0378357 	-8.14694e-17 	0.692319 	0.90198
-0.115703 	0.0377579 	-7.93008e-17 	0.692287 	0.901971
-0.114453 	0.0376802 	-7.47904e-17 	0.692276 	0.90196
-0.113203 	0.0376025 	-7.10607e-17 	0.692264 	0.901944
-0.111953 	0.0375247 	-7.18412e-17 	0.692269 	0.901942
-0.110703 	0.037447 	-7.14941e-17 	0.692314 	0.901952
-0.109453 	0.0373692 	-6.6897e-17 	0.692482 	0.902
-0.108204 	0.0372915 	-6.56826e-17 	0.692563 	0.902026
-0.106954 	0.0372138 	-6.72437e-17 	0.692576 	0.902034
-0.105704 	0.037136 	-6.45547e-17 	0.692584 	0.902039
-0.104454 	0.0370583 	-6.58557e-17 	0.69259 	0.902041
-0.103204 	0.0369805 	-7.30547e-17 	0.692592 	0.902042
-0.101954 	0.0369028 	-7.75648e-17 	0.692578 	0.902035
-0.100705 	0.0368251 	-7.66106e-17 	0.692543 	0.902019
-0.0994548 	0.0367473 	-7.35747e-17 	0.692507 	0.902002
-0.098205 	0.0366696 	-7.19266e-17 	0.692498 	0.901998
-0.0969552 	0.0365919 	-7.07122e-17 	0.692508 	0.902002
-0.0957054 	0.0365141 	-6.92376e-17 	0.692547 	0.902017
-0.0944556 	0.0364364 	-6.95844e-17 	0.692606 	0.902037
-0.0932057 	0.0363586 	-7.12323e-17 	0.69264 	0.902047
-0.0919559 	0.0362809 	-6.9324e-17 	0.692674 	0.902059
-0.0907061 	0.0362032 	-6.81095e-17 	0.692764 	0.902095
-0.0894563 	0.0361254 	-6.7589e-17 	0.692941 	0.902163
-0.0882065 	0.0360477 	-6.72419e-17 	0.692996 	0.902177
-0.0869566 	0.0359699 	-6.92367e-17 	0.693004 	0.902178
-0.0857068 	0.0358922 	-6.88897e-17 	0.693008 	0.902179
-0.084457 	0.0358145 	-6.41191e-17 	0.693012 	0.902181
-0.0832072 	0.0357367 	-6.0476e-17 	0.693014 	0.902181
-0.0819573 	0.035659 	-5.89147e-17 	0.693015 	0.902181
-0.0807075 	0.0355812 	-5.72666e-17 	0.693008 	0.902177
-0.0794577 	0.0355035 	-5.46644e-17 	0.692954 	0.902154
-0.0782079 	0.0354258 	-5.10213e-17 	0.692785 	0.902091
-0.0769581 	0.035348 	-4.84191e-17 	0.692589 	0.90203
-0.0757082 	0.0352703 	-4.78986e-17 	0.692528 	0.902015
-0.0744584 	0.0351926 	-5.02404e-17 	0.69251 	0.902012
-0.0732086 	0.0351148 	-5.27556e-17 	0.69249 	0.902007
-0.0719588 	0.0350371 	-5.37096e-17 	0.692466 	0.901998
-0.070709 	0.0349593 	-4.91992e-17 	0.692444 	0.901986
-0.0694591 	0.0348816 	-4.3301e-17 	0.692428 	0.901974
-0.0682093 	0.0348039 	-4.26937e-17 	0.692421 	0.901968
-0.0669595 	0.0347261 	-4.20865e-17 	0.692434 	0.901971
-0.0657097 	0.0346484 	-4.00047e-17 	0.692515 	0.901996
-0.0644598 	0.0345706 	-4.00046e-17 	0.692578 	0.902018
-0.06321 	0.0344929 	-3.93973e-17 	0.692602 	0.902026
-0.0619602 	0.0344152 	-3.93972e-17 	0.692633 	0.902037
-0.0607104 	0.0343374 	-3.94838e-17 	0.69269 	0.902057
-0.0594606 	0.0342597 	-3.67949e-17 	0.69272 	0.902071
-0.0582107 	0.0341819 	-3.67947e-17 	0.692736 	0.902082
-0.0569609 	0.0341042 	-3.74018e-17 	0.692749 	0.902091
-0.0557111 	0.0340265 	-3.57537e-17 	0.692759 	0.902096
-0.0544613 	0.0339487 	-3.37586e-17 	0.692763 	0.902097
-0.0532115 	0.033871 	-3.3932e-17 	0.692752 	0.902091
-0.0519616 	0.0337933 	-3.34982e-17 	0.692635 	0.902041
-0.0507118 	0.0337155 	-3.31511e-17 	0.692451 	0.901958
-0.049462 	0.0336378 	-3.4799e-17 	0.692409 	0.901933
-0.0482122 	0.03356 	-3.39315e-17 	0.6924 	0.901928
-0.0469624 	0.0334823 	-3.10691e-17 	0.692383 	0.901921
-0.0457125 	0.0334046 	-2.78597e-17 	0.692347 	0.901908
-0.0444627 	0.0333268 	-2.53443e-17 	0.692296 	0.90189
-0.0432129 	0.0332491 	-2.35227e-17 	0.692236 	0.901869
-0.0419631 	0.0331713 	-2.41297e-17 	0.69216 	0.901845
-0.0407132 	0.0330936 	-2.34357e-17 	0.692132 	0.901842
-0.0394634 	0.0330159 	-1.92723e-17 	0.692134 	0.901841
-0.0382136 	0.0329381 	-1.78844e-17 	0.692129 	0.901832
-0.0369638 	0.0328604 	-1.53689e-17 	0.692125 	0.901823
-0.035714 	0.0327826 	-1.13789e-17 	0.692127 	0.901823
-0.0344641 	0.0327049 	-1.04247e-17 	0.692128 	0.901822
-0.0332143 	0.0326272 	-1.04246e-17 	0.692142 	0.901827
-0.0319645 	0.0325494 	-7.8224e-18 	0.692203 	0.90185
-0.0307147 	0.0324717 	-3.312e-18 	0.692344 	0.901907
-0.0294649 	0.032394 	2.58617e-18 	0.692559 	0.901996
-0.028215 	0.0323162 	4.84143e-18 	0.692669 	0.902043
-0.0269652 	0.0322385 	5.70891e-18 	0.692677 	0.902047
-0.0257154 	0.0321607 	4.84166e-18 	0.692674 	0.902046
-0.0244656 	0.032083 	2.84685e-18 	0.692658 	0.902041
-0.0232157 	0.0320053 	7.0103e-18 	0.692622 	0.902028
-0.0219659 	0.0319275 	7.70431e-18 	0.692567 	0.902006
-0.0207161 	0.0318498 	5.62276e-18 	0.692523 	0.901985
-0.0194663 	0.031772 	3.97488e-18 	0.692521 	0.901983
-0.0182165 	0.0316943 	-7.95488e-19 	0.692529 	0.901984
-0.0169666 	0.0316166 	-4.87197e-18 	0.69253 	0.901982
-0.0157168 	0.0315388 	-6.08616e-18 	0.692531 	0.90198
-0.014467 	0.0314611 	-8.08098e-18 	0.69254 	0.901982
-0.0132172 	0.0313833 	-8.77475e-18 	0.692563 	0.901988
-0.0119674 	0.0313056 	-5.5654e-18 	0.692605 	0.902
-0.0107175 	0.0312279 	-1.57541e-18 	0.692673 	0.902023
-0.00946772 	0.0311501 	-2.70287e-18 	0.692788 	0.902063
-0.00821789 	0.0310724 	-4.17727e-18 	0.692922 	0.902098
-0.00696807 	0.0309947 	-4.09041e-18 	0.69297 	0.902102
-0.00571825 	0.0309169 	-7.55974e-18 	0.692974 	0.902102
-0.00446843 	0.0308392 	-1.1723e-17 	0.692977 	0.902103
-0.00321861 	0.0307614 	-1.33708e-17 	0.692981 	0.902107
-0.00196879 	0.0306837 	-1.61463e-17 	0.692978 	0.902107
-0.000718967 	0.030606 	-1.87482e-17 	0.692945 	0.902098
0.000530854 	0.0305282 	-2.11767e-17 	0.692871 	0.902075
0.00178068 	0.0304505 	-2.62073e-17 	0.692752 	0.902035
0.0030305 	0.0303727 	-3.00236e-17 	0.692675 	0.902006
