/*--------------------------------*- C++ -*----------------------------------*\
  =========                 |
  \\      /  F ield         | OpenFOAM: The Open Source CFD Toolbox
   \\    /   O peration     | Website:  https://openfoam.org
    \\  /    A nd           | Version:  7
     \\/     M anipulation  |
\*---------------------------------------------------------------------------*/
FoamFile
{
    version     2.0;
    format      ascii;
    class       volScalarField;
    location    "0.5";
    object      p;
}
// * * * * * * * * * * * * * * * * * * * * * * * * * * * * * * * * * * * * * //

dimensions      [0 2 -2 0 0 0 0];

internalField   nonuniform List<scalar> 
3200
(
1.53156e-08
1.89136e-05
2.0313e-05
-1.15911e-06
-4.58721e-05
-0.000112466
-0.000198762
-0.000302577
-0.000422155
-0.000556281
-0.000704252
-0.000865802
-0.001041
-0.00123017
-0.00143378
-0.00165236
-0.00188649
-0.00213672
-0.00240355
-0.00268746
-0.00298884
-0.00330806
-0.00364545
-0.00400139
-0.00437628
-0.00477063
-0.00518506
-0.00562038
-0.00607757
-0.00655783
-0.00706256
-0.00759327
-0.00815152
-0.00873867
-0.00935571
-0.0100029
-0.0106795
-0.011383
-0.0121093
-0.0128512
-0.0135986
-0.0143378
-0.0150504
-0.0157135
-0.0162989
-0.016773
-0.0170971
-0.0172275
-0.0171168
-0.0167147
-0.0159702
-0.0148343
-0.0132622
-0.0112172
-0.00867414
-0.00562354
-0.00207515
0.00193822
0.00635924
0.0111096
0.0160688
0.0211082
0.026076
0.0308105
0.0351509
0.0389506
0.0420904
0.044491
0.0461223
0.0470079
0.0472226
0.0468838
0.0461382
0.045144
0.0440566
0.0430171
0.0421405
0.041518
0.0412188
0.0412478
-1.93733e-05
-4.90858e-07
-2.90384e-06
-2.68214e-05
-7.10208e-05
-0.00013492
-0.000217344
-0.000316891
-0.000432333
-0.000562751
-0.000707563
-0.000866487
-0.00103949
-0.00122672
-0.00142844
-0.00164501
-0.00187677
-0.00212407
-0.00238722
-0.00266648
-0.00296207
-0.00327415
-0.00360288
-0.00394842
-0.00431098
-0.00469085
-0.00508842
-0.00550423
-0.00593898
-0.00639358
-0.00686909
-0.00736667
-0.0078875
-0.00843261
-0.0090027
-0.00959783
-0.0102172
-0.0108585
-0.0115179
-0.0121891
-0.0128633
-0.0135281
-0.0141673
-0.0147606
-0.0152825
-0.0157029
-0.0159865
-0.0160933
-0.0159792
-0.0155974
-0.0148997
-0.0138391
-0.0123721
-0.0104623
-0.00808367
-0.00522446
-0.00189101
0.00188887
0.00606386
0.0105576
0.0152695
0.0200727
0.0248246
0.0293723
0.0335637
0.037259
0.0403442
0.0427435
0.0444279
0.0454189
0.045787
0.0456417
0.0451187
0.0443628
0.0435131
0.0426904
0.0419929
0.0414859
0.0412347
0.0412727
-2.10164e-05
1.18434e-06
-1.82357e-06
-2.68665e-05
-7.10562e-05
-0.000133817
-0.000214301
-0.000311443
-0.000424309
-0.000552187
-0.000694607
-0.000851327
-0.00102228
-0.00120755
-0.00140729
-0.00162172
-0.00185105
-0.00209547
-0.00235513
-0.00263013
-0.00292049
-0.00322622
-0.00354727
-0.00388362
-0.00423526
-0.00460227
-0.00498481
-0.0053832
-0.00579793
-0.00622969
-0.00667935
-0.00714794
-0.00763655
-0.00814624
-0.00867784
-0.00923174
-0.00980763
-0.0104041
-0.0110184
-0.0116458
-0.0122791
-0.0129083
-0.0135195
-0.014095
-0.0146121
-0.0150433
-0.0153554
-0.0155101
-0.0154647
-0.0151723
-0.0145842
-0.0136517
-0.0123288
-0.0105756
-0.00836208
-0.00567177
-0.00250582
0.00111417
0.0051443
0.00950643
0.014108
0.0188274
0.0235242
0.0280464
0.0322405
0.0359642
0.0390995
0.0415655
0.0433287
0.0444069
0.0448682
0.0448212
0.0444007
0.0437501
0.0430047
0.0422789
0.0416569
0.0412019
0.0409653
0.0409901
1.69862e-06
2.49416e-05
2.10503e-05
-5.28782e-06
-5.02328e-05
-0.000112996
-0.000192777
-0.00028866
-0.000399888
-0.000525909
-0.000666371
-0.000821098
-0.000990051
-0.00117329
-0.00137092
-0.00158308
-0.00180987
-0.00205137
-0.00230758
-0.00257845
-0.00286384
-0.00316357
-0.00347741
-0.00380512
-0.0041465
-0.00450139
-0.00486976
-0.00525175
-0.00564769
-0.00605817
-0.00648405
-0.00692645
-0.00738668
-0.00786623
-0.00836659
-0.00888909
-0.00943466
-0.0100036
-0.010595
-0.0112066
-0.0118338
-0.0124695
-0.0131029
-0.0137188
-0.0142969
-0.0148113
-0.0152296
-0.0155131
-0.0156173
-0.0154927
-0.0150868
-0.0143461
-0.0132193
-0.0116609
-0.00963486
-0.00711889
-0.00410831
-0.000619438
0.00330851
0.00760558
0.0121791
0.0169104
0.0216595
0.0262721
0.0305895
0.034461
0.037758
0.0403879
0.0423058
0.0435205
0.0440945
0.0441358
0.0437818
0.0431808
0.0424725
0.0417732
0.0411673
0.0407096
0.0404468
0.0404132
5.04835e-05
7.0406e-05
6.35372e-05
3.47729e-05
-1.18904e-05
-7.55328e-05
-0.000155375
-0.000250625
-0.000360689
-0.000485176
-0.00062386
-0.000776654
-0.000943572
-0.00112468
-0.00132008
-0.00152985
-0.001754
-0.0019925
-0.00224523
-0.00251199
-0.00279247
-0.00308632
-0.00339309
-0.00371236
-0.0040437
-0.00438678
-0.0047414
-0.00510756
-0.00548556
-0.00587603
-0.00628003
-0.00669907
-0.0071351
-0.00759054
-0.00806815
-0.00857096
-0.00910205
-0.00966426
-0.0102598
-0.0108896
-0.0115527
-0.0122454
-0.0129598
-0.0136834
-0.0143972
-0.0150751
-0.0156835
-0.0161807
-0.016518
-0.0166405
-0.0164894
-0.0160048
-0.015129
-0.01381
-0.0120059
-0.00968834
-0.00684665
-0.00349085
0.000341578
0.00459078
0.00916767
0.0139569
0.01882
0.0236008
0.0281347
0.0322607
0.0358354
0.0387485
0.0409362
0.0423903
0.043161
0.0433499
0.0430954
0.0425518
0.0418676
0.0411675
0.0405419
0.0400482
0.0397249
0.0395945
0.000124984
0.00013759
0.000125512
9.29849e-05
4.35656e-05
-2.17944e-05
-0.000102371
-0.000197518
-0.000306815
-0.000430036
-0.0005671
-0.000718034
-0.000882927
-0.00106189
-0.00125501
-0.00146234
-0.00168383
-0.00191934
-0.00216866
-0.00243142
-0.00270718
-0.00299539
-0.00329544
-0.0036067
-0.00392858
-0.00426061
-0.00460248
-0.00495421
-0.0053162
-0.00568937
-0.00607529
-0.00647628
-0.00689547
-0.00733684
-0.00780526
-0.00830637
-0.00884638
-0.00943177
-0.0100687
-0.0107624
-0.0115157
-0.0123285
-0.0131954
-0.014105
-0.0150379
-0.0159656
-0.0168504
-0.0176451
-0.0182942
-0.0187357
-0.0189034
-0.0187307
-0.0181535
-0.0171141
-0.0155653
-0.0134738
-0.0108236
-0.00761932
-0.00389021
0.000309649
0.00489887
0.00976879
0.0147853
0.0197933
0.024624
0.0291057
0.033078
0.0364073
0.0390033
0.0408313
0.0419188
0.0423528
0.0422667
0.0418196
0.0411714
0.0404608
0.0397926
0.0392349
0.0388235
0.0385707
0.00022353
0.000225509
0.000206198
0.000168615
0.000115455
4.76234e-05
-3.42606e-05
-0.000129741
-0.00023859
-0.000360764
-0.000496348
-0.000645499
-0.000808401
-0.00098522
-0.00117606
-0.00138096
-0.00159981
-0.00183241
-0.00207841
-0.00233735
-0.00260862
-0.00289153
-0.0031853
-0.00348916
-0.00380241
-0.00412451
-0.00445519
-0.00479464
-0.0051436
-0.00550362
-0.00587721
-0.00626801
-0.00668099
-0.00712253
-0.0076005
-0.00812413
-0.00870383
-0.00935063
-0.0100755
-0.010888
-0.0117951
-0.0127991
-0.013896
-0.0150734
-0.0163087
-0.0175687
-0.0188089
-0.0199745
-0.0210018
-0.021821
-0.0223589
-0.0225428
-0.0223036
-0.0215794
-0.0203192
-0.0184854
-0.016057
-0.0130332
-0.00943453
-0.00530592
-0.000718338
0.00423001
0.00941399
0.0146838
0.0198704
0.0247937
0.0292759
0.033157
0.0363125
0.0386709
0.0402246
0.0410337
0.0412173
0.0409343
0.0403566
0.0396429
0.0389203
0.0382777
0.037756
0.0373629
0.000343749
0.000332387
0.000304092
0.000260315
0.000202567
0.000131644
4.80086e-05
-4.81224e-05
-0.000156749
-0.000278033
-0.000412238
-0.000559669
-0.000720616
-0.000895311
-0.00108389
-0.00128637
-0.00150261
-0.00173235
-0.00197513
-0.00223039
-0.0024974
-0.00277532
-0.00306327
-0.00336039
-0.00366595
-0.00397947
-0.00430091
-0.00463083
-0.00497067
-0.00532298
-0.00569172
-0.00608254
-0.00650298
-0.00696269
-0.00747349
-0.00804918
-0.00870519
-0.00945778
-0.0103229
-0.0113144
-0.0124423
-0.01371
-0.0151125
-0.016634
-0.0182463
-0.0199089
-0.0215687
-0.0231622
-0.0246175
-0.0258573
-0.0268028
-0.0273767
-0.0275067
-0.0271287
-0.026189
-0.0246469
-0.0224769
-0.0196725
-0.0162449
-0.0122276
-0.00767824
-0.00268056
0.00265433
0.00818792
0.0137566
0.0191776
0.0242585
0.0288124
0.0326763
0.0357315
0.0379219
0.039265
0.0398516
0.0398306
0.0393835
0.0386927
0.0379169
0.0371762
0.0365266
0.0359774
0.000482913
0.000455937
0.000417217
0.000366301
0.000303293
0.000228813
0.000143115
4.61278e-05
-6.24141e-05
-0.000182903
-0.000315795
-0.000461549
-0.000620567
-0.000793151
-0.000979468
-0.00117953
-0.00139317
-0.00162004
-0.00185964
-0.00211129
-0.00237415
-0.00264731
-0.00292982
-0.00322083
-0.00351969
-0.00382615
-0.00414058
-0.00446425
-0.00479964
-0.00515081
-0.00552376
-0.00592683
-0.00637097
-0.00686995
-0.00744039
-0.00810143
-0.00887407
-0.00977999
-0.0108398
-0.0120707
-0.013484
-0.0150825
-0.0168575
-0.0187873
-0.020836
-0.0229541
-0.0250792
-0.0271388
-0.0290534
-0.03074
-0.0321154
-0.0330999
-0.0336199
-0.0336103
-0.0330167
-0.0317964
-0.02992
-0.027376
-0.0241659
-0.0203111
-0.0158539
-0.0108602
-0.00542238
0.000338802
0.00627303
0.0122025
0.0179279
0.0232399
0.0279365
0.0318458
0.0348499
0.036906
0.0380573
0.0384276
0.0381993
0.0375792
0.0367659
0.0359226
0.0351313
0.03441
0.000637946
0.000593487
0.000543133
0.000484341
0.000415583
0.000337236
0.000249293
0.000151345
4.28277e-05
-7.69027e-05
-0.000208506
-0.000352597
-0.000509687
-0.000680145
-0.000864168
-0.00106176
-0.00127272
-0.00149666
-0.00173298
-0.00198094
-0.00223963
-0.0025081
-0.00278543
-0.00307084
-0.00336392
-0.00366484
-0.00397466
-0.00429569
-0.00463188
-0.00498933
-0.00537672
-0.00580577
-0.00629161
-0.00685289
-0.00751171
-0.008293
-0.00922343
-0.0103297
-0.0116362
-0.0131619
-0.0149177
-0.0169029
-0.0191032
-0.0214889
-0.0240149
-0.0266216
-0.0292374
-0.0317816
-0.0341684
-0.0363103
-0.0381217
-0.039522
-0.0404378
-0.0408051
-0.04057
-0.0396895
-0.0381324
-0.0358819
-0.0329319
-0.0292923
-0.0249897
-0.0200705
-0.0146046
-0.00868954
-0.0024541
0.00393917
0.0102951
0.0163922
0.0219962
0.0268816
0.0308603
0.0338122
0.03571
0.0366297
0.0367386
0.0362624
0.0354449
0.0345046
0.0335616
0.0326509
0.000805486
0.000741907
0.000678935
0.000611712
0.00053688
0.000454504
0.000364254
0.000265337
0.000156857
3.79034e-05
-9.23903e-05
-0.00023479
-0.00038991
-0.000558179
-0.000739808
-0.000934788
-0.00114289
-0.00136366
-0.00159646
-0.00184046
-0.00209474
-0.00235837
-0.00263052
-0.00291062
-0.00319866
-0.00349546
-0.00380306
-0.00412516
-0.00446766
-0.00483922
-0.00525182
-0.00572124
-0.00626742
-0.00691447
-0.00769031
-0.00862574
-0.00975274
-0.0111022
-0.0127007
-0.0145674
-0.0167103
-0.0191235
-0.0217847
-0.0246549
-0.0276789
-0.0307871
-0.0338992
-0.0369272
-0.0397803
-0.0423679
-0.0446036
-0.0464072
-0.0477072
-0.0484419
-0.0485596
-0.0480191
-0.0467894
-0.0448501
-0.0421902
-0.0388101
-0.0347221
-0.0299536
-0.024551
-0.0185844
-0.0121545
-0.00539809
0.00150722
0.00834287
0.0148561
0.020777
0.025847
0.0298565
0.0326853
0.0343333
0.0349266
0.0346952
0.0339275
0.0329081
0.0318081
0.0306887
0.000981794
0.000897636
0.000821224
0.000745172
0.000664089
0.000577649
0.000485139
0.00038533
0.000276969
0.000158871
2.99616e-05
-0.000110664
-0.000263708
-0.00042964
-0.000608676
-0.000800781
-0.00100568
-0.00122288
-0.00145166
-0.00169119
-0.00194054
-0.00219885
-0.00246549
-0.00274025
-0.00302368
-0.00331749
-0.00362499
-0.00395167
-0.00430582
-0.00469919
-0.0051476
-0.00567142
-0.00629586
-0.0070508
-0.00797003
-0.00908984
-0.0104468
-0.0120745
-0.0140005
-0.0162417
-0.0188015
-0.0216667
-0.0248059
-0.02817
-0.0316933
-0.0352969
-0.0388921
-0.0423852
-0.0456811
-0.0486876
-0.0513184
-0.0534953
-0.0551497
-0.0562237
-0.0566695
-0.0564495
-0.0555351
-0.0539051
-0.0515468
-0.0484538
-0.0446275
-0.0400789
-0.034832
-0.0289291
-0.0224386
-0.0154634
-0.00815042
-0.000698117
0.0066421
0.013574
0.0197795
0.0249584
0.0288805
0.0314393
0.0326859
0.0328276
0.0321868
0.0311207
0.0298646
0.0285172
0.00116271
0.00105662
0.000966073
0.000880927
0.000793537
0.000703107
0.000608477
0.000507934
0.000399846
0.000282745
0.000155363
1.66722e-05
-0.000134097
-0.000297434
-0.000473537
-0.00066233
-0.000863485
-0.00107644
-0.00130046
-0.00153466
-0.00177819
-0.00203033
-0.00229071
-0.00255964
-0.00283841
-0.00312986
-0.00343888
-0.00377311
-0.00414364
-0.00456574
-0.0050595
-0.00565028
-0.00636879
-0.00725066
-0.00833527
-0.0096637
-0.0112759
-0.0132071
-0.0154834
-0.0181183
-0.0211087
-0.0244327
-0.0280493
-0.0318986
-0.0359051
-0.0399808
-0.0440301
-0.0479539
-0.0516544
-0.0550385
-0.0580211
-0.0605268
-0.0624912
-0.0638611
-0.0645943
-0.0646583
-0.0640291
-0.0626876
-0.0606219
-0.057823
-0.0542853
-0.0500074
-0.0449948
-0.0392644
-0.0328521
-0.0258231
-0.0182841
-0.0103975
-0.00239144
0.00543632
0.0127309
0.0191136
0.0242396
0.0278716
0.0299471
0.0306118
0.0301986
0.0291348
0.0277316
0.0261382
0.00134361
0.00121427
0.00110899
0.00101459
0.000920938
0.000826688
0.000730161
0.00062912
0.00052153
0.000405648
0.000280027
0.000143534
-4.63651e-06
-0.000164967
-0.000337615
-0.000522441
-0.000719047
-0.000926812
-0.00114495
-0.00137259
-0.00160897
-0.00185358
-0.00210643
-0.00236845
-0.00264188
-0.00293089
-0.00324226
-0.00358608
-0.00397658
-0.00443289
-0.00497967
-0.00564743
-0.00647236
-0.0074956
-0.00876148
-0.010315
-0.0121982
-0.0144462
-0.0170827
-0.0201156
-0.0235344
-0.027308
-0.0313851
-0.0356956
-0.0401545
-0.0446658
-0.0491276
-0.0534366
-0.057493
-0.0612038
-0.0644857
-0.067267
-0.0694881
-0.0711018
-0.072072
-0.0723729
-0.071986
-0.0708974
-0.0690983
-0.0665803
-0.063335
-0.0593537
-0.0546287
-0.0491566
-0.0429445
-0.0360207
-0.0284479
-0.0203412
-0.0118869
-0.00335708
0.00488687
0.0124143
0.0187777
0.0235975
0.026663
0.0280111
0.0279464
0.0269515
0.0254203
0.0235662
0.00151932
0.00136545
0.00124489
0.00114114
0.00104136
0.00094354
0.000845421
0.000744196
0.000637419
0.000523076
0.00039956
0.000265666
0.000120582
-3.61355e-05
-0.000204573
-0.000384503
-0.00057544
-0.000776691
-0.000987428
-0.00120682
-0.0014342
-0.00166935
-0.00191275
-0.00216607
-0.00243267
-0.00271828
-0.00303175
-0.0033859
-0.00379836
-0.00429233
-0.00489714
-0.00564841
-0.00658761
-0.00776083
-0.0092166
-0.0110027
-0.0131621
-0.0157285
-0.0187215
-0.0221428
-0.0259738
-0.0301737
-0.0346813
-0.0394169
-0.0442867
-0.0491877
-0.0540125
-0.0586547
-0.0630132
-0.0669958
-0.0705217
-0.0735232
-0.0759461
-0.0777495
-0.0789042
-0.079391
-0.0791986
-0.078319
-0.0767486
-0.0744823
-0.0715126
-0.0678284
-0.0634143
-0.0582532
-0.0523302
-0.0456416
-0.0382084
-0.0300946
-0.0214318
-0.0124439
-0.00346632
0.00505445
0.0125967
0.018647
0.0228238
0.025009
0.0254269
0.0245845
0.0229556
0.0208316
0.00168411
0.0015044
0.00136802
0.00125489
0.00114918
0.00104812
0.000948796
0.000847796
0.00074225
0.00062989
0.000508973
0.000378257
0.000236958
8.47096e-05
-7.84712e-05
-0.000252243
-0.000436011
-0.000628997
-0.000830335
-0.00103923
-0.00125518
-0.00147827
-0.00170957
-0.00195158
-0.00220892
-0.00248903
-0.00280304
-0.00316667
-0.00360107
-0.00413359
-0.00479818
-0.00563536
-0.00669142
-0.00801677
-0.0096632
-0.0116802
-0.0141105
-0.0169851
-0.020319
-0.024107
-0.0283218
-0.0329137
-0.0378118
-0.0429279
-0.0481604
-0.0534001
-0.0585353
-0.0634572
-0.0680642
-0.0722652
-0.0759825
-0.0791527
-0.0817269
-0.0836703
-0.0849605
-0.0855853
-0.0855402
-0.0848239
-0.083439
-0.0813855
-0.0786596
-0.0752514
-0.0711436
-0.0663116
-0.0607263
-0.0543605
-0.0471997
-0.0392606
-0.030616
-0.0214272
-0.0119759
-0.00268634
0.00588686
0.0131241
0.0184724
0.0216212
0.0226573
0.0220641
0.02038
0.0179842
0.00183161
0.00162465
0.00147191
0.00134941
0.00123804
0.00113414
0.0010341
0.000933848
0.00083009
0.000720318
0.000602689
0.000475959
0.000339414
0.000192802
3.62784e-05
-0.00012967
-0.000304316
-0.000486782
-0.000676162
-0.000871708
-0.0010731
-0.00128081
-0.0014965
-0.00172365
-0.00196823
-0.00223951
-0.00255101
-0.00292143
-0.00337548
-0.00394457
-0.0046671
-0.00558808
-0.00675807
-0.00823101
-0.0100611
-0.0122984
-0.0149846
-0.0181473
-0.021796
-0.0259187
-0.0304799
-0.0354213
-0.0406636
-0.0461107
-0.0516546
-0.0571809
-0.0625746
-0.0677252
-0.0725312
-0.0769031
-0.0807662
-0.0840612
-0.0867444
-0.0887866
-0.0901715
-0.0908932
-0.0909535
-0.0903585
-0.0891163
-0.087233
-0.0847104
-0.0815427
-0.0777144
-0.0731997
-0.0679626
-0.0619612
-0.0551554
-0.0475227
-0.0390816
-0.0299262
-0.0202675
-0.0104737
-0.00108781
0.00720856
0.0137128
0.0179052
0.0196819
0.0194422
0.0177564
0.0150958
0.00195475
0.00171898
0.00154931
0.00141748
0.00130077
0.00119455
0.00109439
0.00099556
0.000894327
0.000787965
0.000674564
0.00055292
0.000422432
0.000283006
0.000134971
-2.10104e-05
-0.000184056
-0.000353173
-0.000527406
-0.000706069
-0.000889047
-0.00107721
-0.00127292
-0.00148065
-0.00170782
-0.0019656
-0.00226995
-0.00264252
-0.00311153
-0.00371226
-0.00448719
-0.00548538
-0.00676096
-0.00837063
-0.01037
-0.0128093
-0.0157279
-0.0191499
-0.0230793
-0.0274973
-0.032361
-0.0376044
-0.0431409
-0.0488678
-0.0546718
-0.0604345
-0.0660385
-0.0713721
-0.0763343
-0.0808375
-0.0848098
-0.0881955
-0.0909554
-0.0930652
-0.0945136
-0.0953003
-0.0954326
-0.0949226
-0.0937843
-0.0920302
-0.0896679
-0.0866975
-0.0831084
-0.0788775
-0.0739683
-0.0683322
-0.061914
-0.054663
-0.0465535
-0.0376172
-0.0279885
-0.0179579
-0.00801622
0.00114358
0.00871183
0.0139681
0.0165796
0.0167963
0.0151716
0.0122621
0.00204567
0.00177934
0.00159208
0.00145097
0.00132934
0.00122142
0.00112193
0.0010254
0.000927666
0.000825817
0.000717908
0.00060282
0.00048011
0.000349881
0.000212676
6.93589e-05
-7.90066e-05
-0.000231296
-0.000386504
-0.000544006
-0.000703913
-0.000867535
-0.00103795
-0.0012207
-0.00142466
-0.00166294
-0.00195391
-0.00232212
-0.00279908
-0.00342366
-0.00424201
-0.00530665
-0.0066746
-0.00840456
-0.0105529
-0.013169
-0.0162901
-0.0199361
-0.024106
-0.0287748
-0.0338932
-0.0393885
-0.0451682
-0.0511243
-0.0571393
-0.063092
-0.068863
-0.0743405
-0.0794239
-0.0840274
-0.0880813
-0.0915333
-0.0943474
-0.0965032
-0.0979937
-0.0988225
-0.0990017
-0.0985484
-0.0974818
-0.0958201
-0.0935772
-0.0907594
-0.0873626
-0.0833693
-0.0787467
-0.0734462
-0.0674064
-0.0605598
-0.0528493
-0.0442556
-0.0348412
-0.0248103
-0.0145729
-0.00478495
0.00369116
0.00996737
0.0134677
0.0142331
0.0127378
0.00960455
0.00209561
0.00179665
0.00159107
0.00144076
0.00131474
0.00120594
0.00110812
0.00101504
0.000922122
0.000826258
0.000725522
0.000618922
0.000506216
0.000387747
0.000264304
0.000136986
7.05624e-06
-0.000124216
-0.000255772
-0.000387058
-0.000518428
-0.000651653
-0.000790556
-0.000941774
-0.00111565
-0.00132721
-0.00159715
-0.00195276
-0.0024286
-0.00306677
-0.00391658
-0.0050334
-0.00647649
-0.00830583
-0.0105779
-0.013341
-0.0166296
-0.02046
-0.0248265
-0.0296988
-0.0350222
-0.0407188
-0.0466914
-0.0528281
-0.0590085
-0.0651091
-0.0710097
-0.0765984
-0.0817752
-0.0864556
-0.0905719
-0.0940739
-0.0969281
-0.0991169
-0.100636
-0.101492
-0.101701
-0.101284
-0.100264
-0.098664
-0.0965041
-0.0937969
-0.0905449
-0.0867376
-0.0823485
-0.0773338
-0.0716324
-0.0651703
-0.0578716
-0.0496803
-0.0405995
-0.0307503
-0.0204482
-0.0102744
-0.00108781
0.00610715
0.0105037
0.0118904
0.0105941
0.00727018
0.00209479
0.00176074
0.00153593
0.0013766
0.00124688
0.00113828
0.00104347
0.000955391
0.000869011
0.000781084
0.000689721
0.000594104
0.000494233
0.000390728
0.00028466
0.000177387
7.03907e-05
-3.49105e-05
-0.000137404
-0.000236622
-0.000333178
-0.000429332
-0.000529672
-0.000641931
-0.000777913
-0.000954486
-0.00119456
-0.00152797
-0.001992
-0.00263157
-0.00349861
-0.00465074
-0.0061488
-0.00805346
-0.0104209
-0.0132977
-0.0167161
-0.0206889
-0.0252063
-0.030234
-0.0357127
-0.041561
-0.0476782
-0.0539498
-0.0602534
-0.0664645
-0.0724624
-0.0781351
-0.0833834
-0.0881237
-0.0922893
-0.0958315
-0.0987183
-0.100933
-0.102474
-0.10335
-0.103578
-0.103183
-0.102191
-0.100629
-0.0985213
-0.0958872
-0.0927354
-0.0890624
-0.0848493
-0.0800595
-0.0746369
-0.0685085
-0.0615904
-0.0538047
-0.0451107
-0.035559
-0.0253706
-0.0150295
-0.00534308
0.00262807
0.00788274
0.0099375
0.00890646
0.00543108
0.00203221
0.00166004
0.00141497
0.00124686
0.00111442
0.00100747
0.000917468
0.000836461
0.000758934
0.000681504
0.000602361
0.000520895
0.000437392
0.000352787
0.000268462
0.000186055
0.000107278
3.37002e-05
-3.35257e-05
-9.40354e-05
-0.000148733
-0.000200393
-0.000254388
-0.000319548
-0.000409103
-0.00054168
-0.000742255
-0.00104293
-0.00148341
-0.00211094
-0.00297958
-0.00414858
-0.00567976
-0.00763398
-0.0100666
-0.0130228
-0.0165321
-0.0206047
-0.0252275
-0.0303628
-0.0359488
-0.041901
-0.0481171
-0.0544811
-0.0608695
-0.0671576
-0.0732246
-0.0789587
-0.084261
-0.0890483
-0.0932547
-0.0968316
-0.0997476
-0.101987
-0.103548
-0.10444
-0.104682
-0.1043
-0.103323
-0.10178
-0.0997012
-0.0971084
-0.0940166
-0.0904292
-0.0863347
-0.0817044
-0.07649
-0.070624
-0.0640232
-0.0566
-0.0482864
-0.03908
-0.0291182
-0.0187812
-0.00879059
-0.0002052
0.00583287
0.0085742
0.00786706
0.00428308
0.00189539
0.00148137
0.00121478
0.00103834
0.00090455
0.000801257
0.00071853
0.000647375
0.00058176
0.000518158
0.000454861
0.000391508
0.000328708
0.000267748
0.000210346
0.00015844
0.000113977
7.86686e-05
5.36882e-05
3.92616e-05
3.4157e-05
3.50477e-05
3.5748e-05
2.63341e-05
-7.81203e-06
-8.69777e-05
-0.000238019
-0.000495063
-0.00089984
-0.00150149
-0.00235565
-0.00352263
-0.00506472
-0.00704248
-0.00951028
-0.0125115
-0.0160738
-0.0202047
-0.0248888
-0.0300863
-0.0357336
-0.0417451
-0.0480174
-0.0544343
-0.0608726
-0.0672074
-0.0733183
-0.079094
-0.0844356
-0.08926
-0.0935011
-0.0971099
-0.100055
-0.102319
-0.103901
-0.104809
-0.105064
-0.104691
-0.103721
-0.102185
-0.100115
-0.0975365
-0.0944697
-0.090923
-0.0868919
-0.082355
-0.0772728
-0.0715859
-0.065217
-0.0580783
-0.0500893
-0.0412128
-0.0315209
-0.0212969
-0.0111591
-0.00211685
0.0046072
0.00802789
0.00769304
0.00404414
0.00167004
0.00120943
0.000919873
0.000735856
0.000602723
0.000505928
0.000433862
0.000376315
0.000326644
0.000281165
0.000238285
0.000197923
0.000161053
0.00012935
0.000104897
8.9945e-05
8.66766e-05
9.69332e-05
0.000121874
0.000161542
0.000214325
0.00027629
0.000340403
0.000395632
0.000426011
0.000409693
0.000318121
0.000115421
-0.000241803
-0.000804131
-0.00162825
-0.00277504
-0.00430673
-0.00628317
-0.00875752
-0.0117715
-0.0153508
-0.0195011
-0.0242056
-0.0294231
-0.0350893
-0.0411185
-0.0474078
-0.0538417
-0.0602974
-0.0666512
-0.0727832
-0.0785826
-0.0839506
-0.0888034
-0.0930743
-0.0967133
-0.0996874
-0.101979
-0.103584
-0.104512
-0.104781
-0.104416
-0.103448
-0.101909
-0.0998329
-0.097247
-0.0941742
-0.0906273
-0.086607
-0.0820987
-0.0770706
-0.071472
-0.0652348
-0.0582772
-0.0505175
-0.0419011
-0.0324553
-0.0223836
-0.0121994
-0.0028307
0.00447709
0.00855074
0.00862543
0.00495313
0.00133953
0.00082627
0.00051206
0.000321796
0.000192314
0.000106085
4.93946e-05
1.05404e-05
-1.78679e-05
-3.97222e-05
-5.6489e-05
-6.79356e-05
-7.26791e-05
-6.86153e-05
-5.32613e-05
-2.40347e-05
2.14817e-05
8.52365e-05
0.000168336
0.000270584
0.000389919
0.000521735
0.00065809
0.000786822
0.000890637
0.00094622
0.000923484
0.000785075
0.000486282
-2.448e-05
-0.000804476
-0.00191463
-0.00341666
-0.0053694
-0.00782455
-0.0108222
-0.0143863
-0.0185212
-0.023209
-0.0284084
-0.0340554
-0.040065
-0.0463356
-0.0527538
-0.0591974
-0.0655447
-0.0716769
-0.0774832
-0.082865
-0.0877381
-0.0920343
-0.0957021
-0.0987066
-0.101028
-0.102661
-0.103612
-0.103897
-0.103541
-0.102573
-0.101025
-0.0989301
-0.0963173
-0.0932106
-0.0896253
-0.0855655
-0.0810216
-0.0759683
-0.070363
-0.0641468
-0.0572482
-0.0495917
-0.0411198
-0.0318356
-0.0218847
-0.0116878
-0.00207694
0.00572641
0.0104174
0.010929
0.00727001
0.000884159
0.000310366
-3.03391e-05
-0.000224533
-0.000345793
-0.000415541
-0.000450231
-0.000463474
-0.000463617
-0.000454832
-0.000438453
-0.000413887
-0.000379286
-0.00033206
-0.00026928
-0.000188
-8.55605e-05
4.00746e-05
0.000189916
0.000363462
0.000558124
0.000768539
0.000985781
0.00119651
0.00138212
0.00151788
0.00157233
0.00150688
0.00127583
0.000826981
0.000102955
-0.000956774
-0.00241299
-0.00432316
-0.00673735
-0.0096939
-0.0132154
-0.0173051
-0.0219447
-0.0270931
-0.0326878
-0.0386451
-0.0448657
-0.0512382
-0.0576434
-0.063961
-0.0700735
-0.075871
-0.0812548
-0.0861398
-0.0904565
-0.0941514
-0.0971869
-0.0995408
-0.101205
-0.102182
-0.102488
-0.102142
-0.101172
-0.0996106
-0.0974867
-0.0948296
-0.0916628
-0.0880022
-0.0838536
-0.0792101
-0.0740507
-0.0683392
-0.0620257
-0.0550488
-0.047345
-0.0388639
-0.0296026
-0.0196731
-0.00942411
0.000405464
0.00864891
0.013925
0.0148946
0.0112785
0.000280104
-0.000364658
-0.000733671
-0.000927739
-0.00103368
-0.00107823
-0.00108154
-0.00105973
-0.00102239
-0.000974061
-0.000915929
-0.000846966
-0.000764769
-0.000666174
-0.000547732
-0.00040608
-0.000238291
-4.22429e-05
0.000182941
0.000436395
0.000714917
0.00101229
0.00131853
0.00161904
0.00189387
0.00211695
0.00225554
0.00227
0.00211395
0.00173494
0.00107588
7.70437e-05
-0.00132102
-0.0031741
-0.00553042
-0.00842654
-0.0118836
-0.0159042
-0.0204701
-0.0255408
-0.0310554
-0.036933
-0.043077
-0.0493787
-0.0557221
-0.061989
-0.0680639
-0.0738377
-0.0792118
-0.0841003
-0.0884321
-0.0921514
-0.0952178
-0.0976058
-0.0993036
-0.100311
-0.100639
-0.100305
-0.0993345
-0.0977535
-0.0955905
-0.0928718
-0.0896188
-0.0858462
-0.081559
-0.0767507
-0.0714021
-0.0654809
-0.0589434
-0.0517386
-0.0438161
-0.0351395
-0.0257146
-0.0156426
-0.00522707
0.00487042
0.0135492
0.0193968
0.0208446
0.0172933
-0.000502282
-0.00123198
-0.00163062
-0.00181745
-0.0018969
-0.00190328
-0.00186185
-0.00179206
-0.00170512
-0.00160601
-0.00149567
-0.00137253
-0.00123348
-0.00107463
-0.000891912
-0.00068144
-0.000439959
-0.000165241
0.000143448
0.000484829
0.000855018
0.00124686
0.0016492
0.00204614
0.00241633
0.00273234
0.00296027
0.00305959
0.00298344
0.00267945
0.00209111
0.00115992
-0.000171919
-0.00195822
-0.00424512
-0.00706733
-0.0104446
-0.0143788
-0.0188518
-0.0238247
-0.0292382
-0.0350146
-0.0410606
-0.0472708
-0.0535327
-0.059731
-0.0657522
-0.0714886
-0.0768418
-0.0817252
-0.0860662
-0.0898064
-0.0929023
-0.0953249
-0.0970581
-0.0980979
-0.0984502
-0.0981292
-0.0971542
-0.0955482
-0.093335
-0.0905366
-0.0871706
-0.0832482
-0.0787711
-0.0737307
-0.0681065
-0.061867
-0.0549718
-0.0473775
-0.0390459
-0.0299587
-0.0201403
-0.00970104
0.0010721
0.0115689
0.0207476
0.0271903
0.0291439
0.0256744
-0.00150113
-0.00233464
-0.00276267
-0.00292975
-0.00296499
-0.00291375
-0.00280848
-0.00267304
-0.00252058
-0.00235651
-0.00218137
-0.00199278
-0.00178667
-0.00155823
-0.00130255
-0.0010151
-0.00069217
-0.00033137
6.79279e-05
0.000504024
0.000972311
0.00146463
0.00196859
0.00246692
0.00293681
0.00334949
0.0036699
0.00385674
0.00386285
0.00363613
0.00312099
0.00226039
0.000998493
-0.000716253
-0.00292771
-0.00566849
-0.00895695
-0.0127942
-0.0171624
-0.0220241
-0.0273223
-0.0329824
-0.0389147
-0.0450178
-0.0511829
-0.0572978
-0.0632518
-0.0689385
-0.0742603
-0.0791301
-0.0834736
-0.0872299
-0.0903524
-0.0928079
-0.0945761
-0.0956481
-0.0960245
-0.0957141
-0.0947308
-0.0930921
-0.0908158
-0.087918
-0.0844106
-0.0802987
-0.0755787
-0.0702365
-0.0642472
-0.057576
-0.0501822
-0.0420256
-0.0330779
-0.0233385
-0.0128567
-0.00176695
0.00963352
0.0207529
0.0305858
0.0377096
0.0402187
0.0368529
-0.00276758
-0.00373048
-0.00418376
-0.00430903
-0.00427166
-0.00413355
-0.00393715
-0.00371188
-0.00347308
-0.0032263
-0.00297128
-0.00270438
-0.00242019
-0.00211263
-0.00177566
-0.00140387
-0.000992963
-0.000540212
-4.50294e-05
0.000490518
0.00106112
0.0016576
0.0022663
0.00286854
0.00344004
0.00395066
0.00436422
0.0046387
0.00472675
0.00457668
0.00413398
0.00334332
0.00215104
0.000508044
-0.00162699
-0.00428459
-0.00748133
-0.0112176
-0.0154758
-0.0202199
-0.0253951
-0.0309302
-0.0367391
-0.0427246
-0.0487819
-0.0548025
-0.0606782
-0.0663049
-0.0715857
-0.0764331
-0.0807715
-0.0845377
-0.0876817
-0.0901662
-0.0919661
-0.093067
-0.0934641
-0.09316
-0.0921613
-0.0904792
-0.0881245
-0.0851056
-0.0814266
-0.0770845
-0.0720672
-0.066352
-0.0599058
-0.0526863
-0.0446473
-0.0357469
-0.0259615
-0.0153048
-0.00385195
0.00822664
0.0206066
0.0326763
0.0434318
0.0514198
0.0545841
0.0513745
-0.00437389
-0.00550027
-0.00596564
-0.00600994
-0.00585431
-0.0055854
-0.00525899
-0.00491108
-0.00455889
-0.00420737
-0.00385459
-0.00349493
-0.00312101
-0.00272495
-0.00229921
-0.00183717
-0.00133365
-0.000785443
-0.00019182
0.000444905
0.0011188
0.00181976
0.00253292
0.00323818
0.00390987
0.00451648
0.00502077
0.00538002
0.00554675
0.0054698
0.0050958
0.00437124
0.00324475
0.00166986
-0.000392186
-0.00296946
-0.00607682
-0.00971369
-0.0138626
-0.0184885
-0.0235392
-0.0289463
-0.0346276
-0.0404901
-0.046433
-0.0523516
-0.0581408
-0.0636987
-0.0689294
-0.0737456
-0.0780703
-0.0818383
-0.0849962
-0.0875026
-0.0893274
-0.0904507
-0.0908612
-0.0905543
-0.0895311
-0.0877926
-0.0853419
-0.0821786
-0.078297
-0.0736835
-0.0683147
-0.0621561
-0.0551619
-0.0472777
-0.0384458
-0.0286158
-0.0177614
-0.00590353
0.00686102
0.0203245
0.0341138
0.0475841
0.0596796
0.0688624
0.0728826
0.069968
-0.00642856
-0.00776135
-0.00820543
-0.00809906
-0.00775182
-0.00728649
-0.00677533
-0.00626082
-0.0057606
-0.00527737
-0.00480601
-0.00433768
-0.00386206
-0.00336879
-0.00284824
-0.00229214
-0.00169413
-0.0010502
-0.000359271
0.000376299
0.00115015
0.00195138
0.00276407
0.00356689
0.00433284
0.00502922
0.00561779
0.00605523
0.006294
0.00628347
0.00597149
0.00530637
0.00423902
0.00272561
0.00073008
-0.00177322
-0.00479726
-0.00834036
-0.0123849
-0.0168969
-0.0218259
-0.0271067
-0.0326607
-0.0383988
-0.0442242
-0.050036
-0.0557325
-0.061214
-0.066386
-0.0711615
-0.0754628
-0.0792224
-0.0823839
-0.0849019
-0.0867414
-0.0878767
-0.08829
-0.0879696
-0.0869076
-0.0850974
-0.082532
-0.0792009
-0.0750865
-0.0701625
-0.0643915
-0.0577234
-0.0500959
-0.0414366
-0.0316698
-0.0207286
-0.0085738
0.00477794
0.0192195
0.0345127
0.0502333
0.0656794
0.0797401
0.0906709
0.0959436
0.0936512
-0.00910642
-0.0106911
-0.0110359
-0.0106545
-0.00999864
-0.00924032
-0.00846873
-0.00772993
-0.00703843
-0.00639136
-0.00577789
-0.00518404
-0.0045952
-0.00399746
-0.00337837
-0.00272747
-0.00203673
-0.00130103
-0.000518621
0.000308359
0.00117337
0.00206498
0.00296648
0.00385554
0.00470411
0.00547853
0.00613974
0.00664404
0.00694392
0.00698945
0.00672955
0.00611438
0.00509712
0.00363647
0.00169897
-0.000738659
-0.00368746
-0.00714456
-0.0110921
-0.0154967
-0.0203098
-0.0254687
-0.0308981