/*--------------------------------*- C++ -*----------------------------------*\
  =========                 |
  \\      /  F ield         | OpenFOAM: The Open Source CFD Toolbox
   \\    /   O peration     | Website:  https://openfoam.org
    \\  /    A nd           | Version:  7
     \\/     M anipulation  |
\*---------------------------------------------------------------------------*/
FoamFile
{
    version     2.0;
    format      ascii;
    class       surfaceScalarField;
    location    "0.5";
    object      phi;
}
// * * * * * * * * * * * * * * * * * * * * * * * * * * * * * * * * * * * * * //

dimensions      [0 3 -1 0 0 0 0];

internalField   nonuniform List<scalar> 
6280
(
2.5495e-10
-2.55129e-10
1.28796e-09
-1.03302e-09
2.76895e-09
-1.48099e-09
4.37852e-09
-1.6096e-09
5.9229e-09
-1.54435e-09
7.30247e-09
-1.37957e-09
8.48038e-09
-1.17792e-09
9.45876e-09
-9.78397e-10
1.0261e-08
-8.02268e-10
1.09196e-08
-6.58537e-10
1.14677e-08
-5.48084e-10
1.19344e-08
-4.66689e-10
1.23417e-08
-4.07345e-10
1.27034e-08
-3.61682e-10
1.30242e-08
-3.20847e-10
1.33004e-08
-2.76211e-10
1.35201e-08
-2.19677e-10
1.36639e-08
-1.43797e-10
1.37057e-08
-4.17801e-11
1.36126e-08
9.3091e-11
1.33465e-08
2.66135e-10
1.28635e-08
4.83006e-10
1.21146e-08
7.48839e-10
1.10458e-08
1.06876e-09
9.59781e-09
1.44802e-09
7.70563e-09
1.89218e-09
5.29814e-09
2.40748e-09
2.297e-09
3.00114e-09
-1.3849e-09
3.68189e-09
-5.8452e-09
4.46029e-09
-1.11943e-08
5.34913e-09
-1.75579e-08
6.36353e-09
-2.50787e-08
7.52083e-09
-3.39188e-08
8.84008e-09
-4.42599e-08
1.03411e-08
-5.63029e-08
1.2043e-08
-7.02654e-08
1.39625e-08
-8.63769e-08
1.61116e-08
-1.04872e-07
1.8495e-08
-1.2598e-07
2.11079e-08
-1.49913e-07
2.39331e-08
-1.76852e-07
2.69386e-08
-2.06928e-07
3.0076e-08
-2.40206e-07
3.32783e-08
-2.76665e-07
3.64594e-08
-3.16179e-07
3.95134e-08
-3.58495e-07
4.2316e-08
-4.03221e-07
4.47261e-08
-4.4981e-07
4.6589e-08
-4.97551e-07
4.77407e-08
-5.45564e-07
4.80137e-08
-5.92807e-07
4.7243e-08
-6.38082e-07
4.52746e-08
-6.80056e-07
4.19738e-08
-7.17291e-07
3.72356e-08
-7.48288e-07
3.09969e-08
-7.71538e-07
2.32496e-08
-7.85597e-07
1.40598e-08
-7.89249e-07
3.65167e-09
-7.81169e-07
-8.08043e-09
-7.6085e-07
-2.03186e-08
-7.27953e-07
-3.28975e-08
-6.8275e-07
-4.52022e-08
-6.26154e-07
-5.65959e-08
-5.59755e-07
-6.63993e-08
-4.85812e-07
-7.3943e-08
-4.07175e-07
-7.86374e-08
-3.27124e-07
-8.00505e-08
-2.49143e-07
-7.79815e-08
-1.76627e-07
-7.25157e-08
-1.12584e-07
-6.40431e-08
-5.93529e-08
-5.32308e-08
-1.84045e-08
-4.09484e-08
9.76447e-09
-2.8169e-08
2.56075e-08
-1.5843e-08
3.04312e-08
-4.82373e-09
2.63769e-08
4.05436e-09
1.65591e-08
9.81777e-09
5.58417e-09
1.09749e-08
5.58416e-09
1.04507e-09
-1.30022e-09
3.43378e-09
-3.42169e-09
6.52118e-09
-4.56838e-09
9.79326e-09
-4.88169e-09
1.28933e-08
-4.64436e-09
1.56137e-08
-4.10004e-09
1.78642e-08
-3.4284e-09
1.96352e-08
-2.74935e-09
2.09662e-08
-2.13327e-09
2.19209e-08
-1.61318e-09
2.25685e-08
-1.19569e-09
2.29716e-08
-8.69817e-10
2.31781e-08
-6.13835e-10
2.32165e-08
-4.00104e-10
2.3094e-08
-1.98289e-10
2.27962e-08
2.15841e-11
2.22871e-08
2.89466e-10
2.15099e-08
6.33343e-10
2.03883e-08
1.07979e-09
1.88274e-08
1.65403e-09
1.67136e-08
2.37989e-09
1.39161e-08
3.2805e-09
1.02864e-08
4.37861e-09
5.65807e-09
5.69707e-09
-1.5337e-10
7.25948e-09
-7.35206e-09
9.09088e-09
-1.61633e-08
1.12187e-08
-2.68358e-08
1.36737e-08
-3.96453e-08
1.64913e-08
-5.48972e-08
1.97122e-08
-7.29313e-08
2.33832e-08
-9.41246e-08
2.75569e-08
-1.18894e-07
3.22903e-08
-1.47697e-07
3.76426e-08
-1.81026e-07
4.36707e-08
-2.19407e-07
5.04236e-08
-2.63379e-07
5.7935e-08
-3.13482e-07
6.62147e-08
-3.70227e-07
7.524e-08
-4.34066e-07
8.49462e-08
-5.05351e-07
9.52185e-08
-5.84298e-07
1.05885e-07
-6.70934e-07
1.16712e-07
-7.65057e-07
1.27402e-07
-8.66192e-07
1.37594e-07
-9.73552e-07
1.46873e-07
-1.08601e-06
1.54774e-07
-1.20208e-06
1.608e-07
-1.31993e-06
1.6444e-07
-1.43738e-06
1.65186e-07
-1.55193e-06
1.6256e-07
-1.66082e-06
1.56136e-07
-1.76111e-06
1.45562e-07
-1.84972e-06
1.30588e-07
-1.92357e-06
1.11087e-07
-1.97966e-06
8.70823e-08
-2.01518e-06
5.87723e-08
-2.02769e-06
2.65658e-08
-2.01521e-06
-8.82872e-09
-1.97637e-06
-4.69176e-08
-1.9105e-06
-8.6189e-08
-1.81796e-06
-1.25437e-07
-1.70009e-06
-1.63074e-07
-1.55934e-06
-1.97342e-07
-1.39934e-06
-2.26403e-07
-1.22481e-06
-2.48469e-07
-1.04149e-06
-2.61965e-07
-8.55812e-07
-2.65724e-07
-6.74627e-07
-2.59167e-07
-5.04679e-07
-2.42463e-07
-3.52121e-07
-2.16601e-07
-2.2199e-07
-1.83362e-07
-1.17774e-07
-1.45165e-07
-4.11126e-08
-1.0483e-07
8.34106e-09
-6.52967e-08
3.29506e-08
-2.94333e-08
3.70629e-08
-5.79287e-11
2.68592e-08
2.00215e-08
1.0813e-08
2.70211e-08
1.63972e-08
1.5146e-09
-2.81482e-09
4.60759e-09
-6.51471e-09
8.39066e-09
-8.3514e-09
1.22475e-08
-8.73854e-09
1.57615e-08
-8.15838e-09
1.86892e-08
-7.02772e-09
2.09242e-08
-5.66342e-09
2.24576e-08
-4.28275e-09
2.33416e-08
-3.01725e-09
2.36592e-08
-1.93082e-09
2.35011e-08
-1.03756e-09
2.29484e-08
-3.17086e-10
2.2062e-08
2.726e-10
2.08751e-08
7.86719e-10
1.93905e-08
1.28636e-09
1.75776e-08
1.83441e-09
1.53739e-08
2.49324e-09
1.26839e-08
3.32328e-09
9.38098e-09
4.38275e-09
5.30709e-09
5.72791e-09
2.73591e-10
7.41339e-09
-5.93886e-09
9.49296e-09
-1.35806e-08
1.20204e-08
-2.29337e-08
1.50502e-08
-3.43133e-08
1.8639e-08
-4.80692e-08
2.28467e-08
-6.45883e-08
2.77378e-08
-8.42979e-08
3.33833e-08
-1.07669e-07
3.9862e-08
-1.35218e-07
4.72619e-08
-1.67515e-07
5.56798e-08
-2.05178e-07
6.52198e-08
-2.48877e-07
7.59896e-08
-2.99328e-07
8.80929e-08
-3.57277e-07
1.0162e-07
-4.23487e-07
1.16634e-07
-4.98705e-07
1.33153e-07
-5.83625e-07
1.51135e-07
-6.78841e-07
1.70456e-07
-7.84789e-07
1.90895e-07
-9.01687e-07
2.12116e-07
-1.02946e-06
2.33663e-07
-1.16771e-06
2.54953e-07
-1.31559e-06
2.75282e-07
-1.47183e-06
2.9384e-07
-1.63469e-06
3.09736e-07
-1.80195e-06
3.22026e-07
-1.9709e-06
3.29758e-07
-2.13848e-06
3.3201e-07
-2.30123e-06
3.27939e-07
-2.45549e-06
3.1682e-07
-2.59744e-06
2.98087e-07
-2.72324e-06
2.71365e-07
-2.82915e-06
2.36495e-07
-2.91162e-06
1.93559e-07
-2.96744e-06
1.42903e-07
-2.99382e-06
8.51563e-08
-2.98855e-06
2.12966e-08
-2.94988e-06
-4.74996e-08
-2.87718e-06
-1.19626e-07
-2.77032e-06
-1.93045e-07
-2.63031e-06
-2.65443e-07
-2.45922e-06
-3.34164e-07
-2.26027e-06
-3.96292e-07
-2.0379e-06
-4.48778e-07
-1.79774e-06
-4.88631e-07
-1.54654e-06
-5.13165e-07
-1.29195e-06
-5.20306e-07
-1.04222e-06
-5.08903e-07
-8.05662e-07
-4.79018e-07
-5.90156e-07
-4.32107e-07
-4.02471e-07
-3.71047e-07
-2.47674e-07
-2.99962e-07
-1.28638e-07
-2.23867e-07
-4.57109e-08
-1.48224e-07
3.41284e-09
-7.85571e-08
2.36807e-08
-2.03257e-08
2.26819e-08
2.10203e-08
1.04128e-08
3.92902e-08
2.681e-08
1.64196e-09
-4.45679e-09
4.85072e-09
-9.72346e-09
8.58405e-09
-1.20847e-08
1.21701e-08
-1.23246e-08
1.51817e-08
-1.117e-08
1.73824e-08
-9.22842e-09
1.86803e-08
-6.96125e-09
1.9084e-08
-4.68644e-09
1.86643e-08
-2.59756e-09
1.75219e-08
-7.88434e-10
1.57623e-08
7.22051e-10
1.34772e-08
1.96797e-09
1.07317e-08
3.01813e-09
7.55616e-09
3.96225e-09
3.94163e-09
4.90089e-09
-1.62741e-10
5.93878e-09
-4.85047e-09
7.18096e-09
-1.0258e-08
8.73083e-09
-1.65648e-08
1.06896e-08
-2.39932e-08
1.31563e-08
-3.28088e-08
1.6229e-08
-4.33212e-08
2.00053e-08
-5.58847e-08
2.45839e-08
-7.09e-08
3.00656e-08
-8.88159e-08
3.6555e-08
-1.10131e-07
4.41621e-08
-1.35398e-07
5.30043e-08
-1.65222e-07
6.32079e-08
-2.0027e-07
7.49096e-08
-2.41265e-07
8.82568e-08
-2.88991e-07
1.03405e-07
-3.44286e-07
1.20515e-07
-4.08037e-07
1.39741e-07
-4.81161e-07
1.61217e-07
-5.6458e-07
1.85039e-07
-6.59187e-07
2.1124e-07
-7.65793e-07
2.39759e-07
-8.85072e-07
2.70414e-07
-1.01748e-06
3.02869e-07
-1.1632e-06
3.36612e-07
-1.32203e-06
3.70939e-07
-1.49331e-06
4.04947e-07
-1.6759e-06
4.37544e-07
-1.8681e-06
4.67479e-07
-2.06764e-06
4.93379e-07
-2.27171e-06
5.1381e-07
-2.47703e-06
5.27344e-07
-2.6799e-06
5.32628e-07
-2.87635e-06
5.28459e-07
-3.06225e-06
5.13838e-07
-3.23345e-06
4.88022e-07
-3.38592e-06
4.50556e-07
-3.51584e-06
4.01292e-07
-3.61974e-06
3.40395e-07
-3.69453e-06
2.68347e-07
-3.73758e-06
1.8595e-07
-3.74675e-06
9.43314e-08
-3.72051e-06
-4.95018e-09
-3.65776e-06
-1.10249e-07
-3.55824e-06
-2.19139e-07
-3.4223e-06
-3.28989e-07
-3.25108e-06
-4.3666e-07
-3.04667e-06
-5.38579e-07
-2.81216e-06
-6.30801e-07
-2.5518e-06
-7.09134e-07
-2.27107e-06
-7.69367e-07
-1.97665e-06
-8.07584e-07
-1.67638e-06
-8.20576e-07
-1.37898e-06
-8.06302e-07
-1.09364e-06
-7.64355e-07
-8.29437e-07
-6.96311e-07
-5.94595e-07
-6.05889e-07
-3.95739e-07
-4.98818e-07
-2.37187e-07
-3.82419e-07
-1.20428e-07
-2.64982e-07
-4.38522e-08
-1.55133e-07
-2.72779e-09
-6.14501e-08
1.07564e-08
7.53611e-09
7.13304e-09
4.29136e-08
3.3943e-08
1.52362e-09
-5.98038e-09
4.35075e-09
-1.25506e-08
7.39751e-09
-1.51315e-08
9.99046e-09
-1.49176e-08
1.17291e-08
-1.29086e-08
1.24142e-08
-9.91346e-09
1.19906e-08
-6.53772e-09
1.04996e-08
-3.19542e-09
8.03808e-09
-1.36016e-10
4.72632e-09
2.52333e-09
6.82544e-10
4.76582e-09
-3.99578e-09
6.64628e-09
-9.24496e-09
8.26731e-09
-1.50435e-08
9.76082e-09
-2.14174e-08
1.12748e-08
-2.84428e-08
1.29642e-08
-3.62479e-08
1.4986e-08
-4.50135e-08
1.74965e-08
-5.49742e-08
2.06503e-08
-6.64188e-08
2.46009e-08
-7.96916e-08
2.95018e-08
-9.51939e-08
3.55076e-08
-1.13385e-07
4.27753e-08
-1.34786e-07
5.14663e-08
-1.59979e-07
6.17477e-08
-1.89611e-07
7.37938e-08
-2.24395e-07
8.77883e-08
-2.65112e-07
1.03925e-07
-3.1261e-07
1.22408e-07
-3.67802e-07
1.43449e-07
-4.31659e-07
1.67263e-07
-5.052e-07
1.94056e-07
-5.89467e-07
2.24008e-07
-6.85501e-07
2.5725e-07
-7.94293e-07
2.93832e-07
-9.16731e-07
3.33679e-07
-1.05353e-06
3.76556e-07
-1.20514e-06
4.22021e-07
-1.37166e-06
4.69393e-07
-1.55277e-06
5.17719e-07
-1.7476e-06
5.65775e-07
-1.95473e-06
6.12075e-07
-2.1721e-06
6.54915e-07
-2.39705e-06
6.92431e-07
-2.62637e-06
7.22693e-07
-2.85636e-06
7.43798e-07
-3.08299e-06
7.53978e-07
-3.30205e-06
7.51692e-07
-3.5093e-06
7.35706e-07
-3.70061e-06
7.05146e-07
-3.87211e-06
6.59524e-07
-4.02029e-06
5.98737e-07
-4.14205e-06
5.23052e-07
-4.23474e-06
4.33079e-07
-4.29613e-06
3.29742e-07
-4.32445e-06
2.1427e-07
-4.31832e-06
8.81972e-08
-4.27666e-06
-4.66086e-08
-4.19893e-06
-1.87978e-07
-4.08484e-06
-3.33233e-07
-3.93458e-06
-4.79242e-07
-3.74892e-06
-6.22327e-07
-3.52926e-06
-7.58234e-07
-3.27791e-06
-8.82153e-07
-2.99821e-06
-9.88834e-07
-2.69477e-06
-1.07281e-06
-2.37359e-06
-1.12876e-06
-2.04213e-06
-1.15203e-06
-1.70919e-06
-1.13925e-06
-1.38454e-06
-1.089e-06
-1.07838e-06
-1.00248e-06
-8.00485e-07
-8.8378e-07
-5.59297e-07
-7.40005e-07
-3.60951e-07
-5.80765e-07
-2.08533e-07
-4.174e-07
-1.01628e-07
-2.62038e-07
-3.6223e-08
-1.26855e-07
-4.91411e-09
-2.37728e-08
2.75162e-09
3.52479e-08
3.66946e-08
1.22962e-09
-7.20998e-09
3.27437e-09
-1.45953e-08
5.10089e-09
-1.6958e-08
6.08936e-09
-1.5906e-08
5.90189e-09
-1.27212e-08
4.4018e-09
-8.41338e-09
1.58988e-09
-3.72583e-09
-2.44731e-09
8.41763e-10
-7.57883e-09
4.99551e-09
-1.36616e-08
8.60609e-09
-2.05648e-08
1.1669e-08
-2.81876e-08
1.42691e-08
-3.64715e-08
1.65512e-08
-4.54085e-08
1.86978e-08
-5.50457e-08
2.0912e-08
-6.54889e-08
2.34074e-08
-7.69044e-08
2.64015e-08
-8.95203e-08
3.01124e-08
-1.03629e-07
3.47584e-08
-1.19586e-07
4.05583e-08
-1.37816e-07
4.77324e-08
-1.58813e-07
5.65044e-08
-1.8314e-07
6.71026e-08
-2.11436e-07
7.97617e-08
-2.44412e-07
9.47235e-08
-2.82856e-07
1.12239e-07
-3.27635e-07
1.32567e-07
-3.79686e-07
1.55976e-07
-4.40017e-07
1.82739e-07
-5.09698e-07
2.1313e-07
-5.89844e-07
2.47408e-07
-6.81588e-07
2.858e-07
-7.86054e-07
3.28474e-07
-9.04302e-07
3.75498e-07
-1.03726e-06
4.26793e-07
-1.18567e-06
4.82084e-07
-1.34995e-06
5.40841e-07
-1.53016e-06
6.02228e-07
-1.72584e-06
6.65074e-07
-1.93598e-06
7.27857e-07
-2.15892e-06
7.88718e-07
-2.39237e-06
8.45522e-07
-2.63339e-06
8.95936e-07
-2.87851e-06
9.37548e-07
-3.12382e-06
9.68002e-07
-3.36515e-06
9.85131e-07
-3.59826e-06
9.87086e-07
-3.81899e-06
9.72423e-07
-4.02345e-06
9.40169e-07
-4.20814e-06
8.89828e-07
-4.36998e-06
8.21371e-07
-4.50643e-06
7.35179e-07
-4.61536e-06
6.31989e-07
-4.69511e-06
5.12829e-07
-4.74435e-06
3.78975e-07
-4.762e-06
2.31923e-07
-4.7472e-06
7.34031e-08
-4.69923e-06
-9.4587e-08
-4.61746e-06
-2.69741e-07
-4.50139e-06
-4.49301e-07
-4.35067e-06
-6.29967e-07
-4.16521e-06
-8.07788e-07
-3.94538e-06
-9.78066e-07
-3.69221e-06
-1.13532e-06
-3.40771e-06
-1.27333e-06
-3.09515e-06
-1.38538e-06
-2.75936e-06
-1.46455e-06
-2.407e-06
-1.50439e-06
-2.04656e-06
-1.49968e-06
-1.68821e-06
-1.44736e-06
-1.34323e-06
-1.34745e-06
-1.02317e-06
-1.20384e-06
-7.38662e-07
-1.02451e-06
-4.98208e-07
-8.21219e-07
-3.07067e-07
-6.08541e-07
-1.66563e-07
-4.02542e-07
-7.38855e-08
-2.19533e-07
-2.23454e-08
-7.53129e-08
-1.94152e-09
1.4844e-08
3.47532e-08
8.05812e-10
-8.01577e-09
1.74793e-09
-1.55374e-08
1.91169e-09
-1.71218e-08
7.80624e-10
-1.4775e-08
-1.88624e-09
-1.00543e-08
-6.13891e-09
-4.16071e-09
-1.19036e-08
2.03881e-09
-1.90365e-08
7.97465e-09
-2.73653e-08
1.33244e-08
-3.67205e-08
1.79613e-08
-4.69577e-08
2.19062e-08
-5.79741e-08
2.52855e-08
-6.9719e-08
2.82961e-08
-8.22007e-08
3.11795e-08
-9.54912e-08
3.42025e-08
-1.09729e-07
3.7645e-08
-1.2512e-07
4.17932e-08
-1.41944e-07
4.69358e-08
-1.60549e-07
5.33639e-08
-1.81362e-07
6.13712e-08
-2.04885e-07
7.12556e-08
-2.31702e-07
8.33207e-08
-2.62476e-07
9.78768e-08
-2.97957e-07
1.15242e-07
-3.38976e-07
1.35743e-07
-3.86452e-07
1.59714e-07
-4.41379e-07
1.87494e-07
-5.04829e-07
2.19426e-07
-5.77935e-07
2.55845e-07
-6.61874e-07
2.97069e-07
-7.57842e-07
3.43376e-07
-8.67013e-07
3.94972e-07
-9.9049e-07
4.51951e-07
-1.12923e-06
5.14241e-07
-1.28398e-06
5.81542e-07
-1.45516e-06
6.53258e-07
-1.64275e-06
7.28438e-07
-1.84625e-06
8.05728e-07
-2.06453e-06
8.83354e-07
-2.29581e-06
9.59134e-07
-2.53763e-06
1.03054e-06
-2.78693e-06
1.09482e-06
-3.04009e-06
1.1491e-06
-3.29314e-06
1.1906e-06
-3.54191e-06
1.21677e-06
-3.78224e-06
1.22546e-06
-4.01016e-06
1.21502e-06
-4.22212e-06
1.18437e-06
-4.41498e-06
1.13304e-06
-4.5862e-06
1.06104e-06
-4.73373e-06
9.68903e-07
-4.85603e-06
8.57484e-07
-4.95197e-06
7.27929e-07
-5.02071e-06
5.8157e-07
-5.06161e-06
4.19874e-07
-5.07411e-06
2.44418e-07
-5.05762e-06
5.69099e-08
-5.01149e-06
-1.40709e-07
-4.93495e-06
-3.46288e-07
-4.82704e-06
-5.57207e-07
-4.68674e-06
-7.70265e-07
-4.51302e-06
-9.81507e-07
-4.30503e-06
-1.18606e-06
-4.06236e-06
-1.378e-06
-3.78536e-06
-1.55033e-06
-3.4756e-06
-1.69513e-06
-3.1363e-06
-1.80384e-06
-2.77277e-06
-1.86792e-06
-2.3927e-06
-1.87976e-06
-2.0062e-06
-1.83386e-06
-1.62543e-06
-1.72822e-06
-1.26377e-06
-1.56551e-06
-9.34438e-07
-1.35384e-06
-6.48922e-07
-1.10674e-06
-4.15414e-07
-8.42048e-07
-2.37698e-07
-5.80258e-07
-1.14719e-07
-3.42513e-07
-4.08586e-08
-1.49173e-07
-6.70307e-09
-1.93116e-08
2.80501e-08
2.82185e-10
-8.29795e-09
-1.37801e-10
-1.51174e-08
-2.00439e-09
-1.52551e-08
-5.6884e-09
-1.1091e-08
-1.13023e-08
-4.44044e-09
-1.87862e-08
3.3232e-09
-2.79774e-08
1.123e-08
-3.86639e-08
1.86612e-08
-5.06254e-08
2.52859e-08
-6.36621e-08
3.09979e-08
-7.76151e-08
3.58591e-08
-9.23799e-08
4.00503e-08
-1.07915e-07
4.38314e-08
-1.24248e-07
4.75124e-08
-1.41477e-07
5.14317e-08
-1.59776e-07
5.59436e-08
-1.79393e-07
6.14104e-08
-2.00656e-07
6.81992e-08
-2.23975e-07
7.66821e-08
-2.4984e-07
8.72363e-08
-2.7883e-07
1.00246e-07
-3.11613e-07
1.16104e-07
-3.48946e-07
1.3521e-07
-3.91676e-07
1.57973e-07
-4.40742e-07
1.84809e-07
-4.97165e-07
2.16137e-07
-5.62046e-07
2.52375e-07
-6.36549e-07
2.93929e-07
-7.21885e-07
3.41181e-07
-8.19279e-07
3.94463e-07
-9.29933e-07
4.5403e-07
-1.05497e-06
5.2001e-07
-1.19537e-06
5.92349e-07
-1.35187e-06
6.70743e-07
-1.52489e-06
7.54563e-07
-1.71442e-06
8.42782e-07
-1.9199e-06
9.33916e-07
-2.14017e-06
1.026e-06
-2.3734e-06
1.11659e-06
-2.6171e-06
1.20283e-06
-2.86815e-06
1.28159e-06
-3.12293e-06
1.3496e-06
-3.37748e-06
1.40366e-06
-3.62772e-06
1.44084e-06
-3.86964e-06
1.45868e-06
-4.0995e-06
1.45531e-06
-4.31402e-06
1.42953e-06
-4.51046e-06
1.38081e-06
-4.68667e-06
1.30925e-06
-4.84108e-06
1.21545e-06
-4.97262e-06
1.10044e-06
-5.08063e-06
9.65494e-07
-5.16474e-06
8.12042e-07
-5.22476e-06
6.41588e-07
-5.26053e-06
4.55645e-07
-5.27184e-06
2.55726e-07
-5.25828e-06
4.33478e-08
-5.21927e-06
-1.7972e-07
-5.15385e-06
-4.11704e-07
-5.06075e-06
-6.50307e-07
-4.93835e-06
-8.92661e-07
-4.78478e-06
-1.13508e-06
-4.59804e-06
-1.3728e-06
-4.37623e-06
-1.5998e-06
-4.11796e-06
-1.8086e-06
-3.82279e-06
-1.9903e-06
-3.49185e-06
-2.13479e-06
-3.12848e-06
-2.2313e-06
-2.73881e-06
-2.26942e-06
-2.33218e-06
-2.24049e-06
-1.92106e-06
-2.13934e-06
-1.52036e-06
-1.9662e-06
-1.14608e-06
-1.72813e-06
-8.13283e-07
-1.43953e-06
-5.33986e-07
-1.12135e-06
-3.1537e-07
-7.98875e-07
-1.58912e-07
-4.9897e-07
-6.05424e-08
-2.47542e-07
-1.15832e-08
-6.82707e-08
1.64669e-08
-3.23953e-10
-7.974e-09
-2.32042e-09
-1.3121e-08
-6.52613e-09
-1.10494e-08
-1.31289e-08
-4.48819e-09
-2.20839e-08
4.51448e-09
-3.32004e-08
1.44397e-08
-4.62117e-08
2.42413e-08
-6.08277e-08
3.32773e-08
-7.67739e-08
4.1232e-08
-9.38169e-08
4.80409e-08
-1.11782e-07
5.38242e-08
-1.30563e-07
5.88315e-08
-1.5013e-07
6.33979e-08
-1.70528e-07
6.7911e-08
-1.91886e-07
7.27893e-08
-2.14411e-07
7.84684e-08
-2.38394e-07
8.53937e-08
-2.64212e-07
9.40176e-08
-2.9233e-07
1.048e-07
-3.23302e-07
1.18208e-07
-3.57776e-07
1.3472e-07
-3.96494e-07
1.54821e-07
-4.40292e-07
1.79008e-07
-4.90101e-07
2.07782e-07
-5.4694e-07
2.41648e-07
-6.11909e-07
2.81106e-07
-6.86174e-07
3.2664e-07
-7.70947e-07
3.78703e-07
-8.67459e-07
4.37692e-07
-9.76913e-07
5.03918e-07
-1.10044e-06
5.77555e-07
-1.23901e-06
6.58585e-07
-1.39339e-06
7.46724e-07
-1.56399e-06
8.41342e-07
-1.75081e-06
9.41381e-07
-1.95331e-06
1.04529e-06
-2.17037e-06
1.15097e-06
-2.40018e-06
1.25581e-06
-2.64029e-06
1.35669e-06
-2.88763e-06
1.45018e-06
-3.13867e-06
1.53263e-06
-3.38954e-06
1.60047e-06
-3.63628e-06
1.6504e-06
-3.87504e-06
1.6796e-06
-4.10231e-06
1.68595e-06
-4.31502e-06
1.66803e-06
-4.51074e-06
1.62525e-06
-4.68761e-06
1.55768e-06
-4.84438e-06
1.46602e-06
-4.98034e-06
1.35142e-06
-5.09519e-06
1.21529e-06
-5.18894e-06
1.05924e-06
-5.26179e-06
8.8489e-07
-5.31401e-06
6.93806e-07
-5.34583e-06
4.87467e-07
-5.35735e-06
2.67245e-07
-5.34837e-06
3.43743e-08
-5.31849e-06
-2.09608e-07
-5.26674e-06
-4.63448e-07
-5.19174e-06
-7.25312e-07
-5.09153e-06
-9.92869e-07
-4.96364e-06
-1.26296e-06
-4.80514e-06
-1.5313e-06
-4.61283e-06
-1.79212e-06
-4.38355e-06
-2.03788e-06
-4.11471e-06
-2.25914e-06
-3.80497e-06
-2.44453e-06
-3.45506e-06
-2.58121e-06
-3.06873e-06
-2.65576e-06
-2.65351e-06
-2.6557e-06
-2.2212e-06
-2.57165e-06
-1.78754e-06
-2.39986e-06
-1.37104e-06
-2.14463e-06
-9.90703e-07
-1.81987e-06
-6.63243e-07
-1.44881e-06
-4.00383e-07
-1.06173e-06
-2.07191e-07
-6.92162e-07
-8.18652e-08
-3.72868e-07
-1.67685e-08
-1.33367e-07
-3.01598e-10
-1e-09
-6.97398e-09
-4.75783e-09
-9.36317e-09
-1.15663e-08
-4.24094e-09
-2.13987e-08
5.34425e-09
-3.40273e-08
1.71431e-08
-4.91112e-08
2.95236e-08
-6.62658e-08
4.13959e-08
-8.51141e-08
5.21257e-08
-1.05322e-07
6.14398e-08
-1.2662e-07
6.93386e-08
-1.48815e-07
7.602e-08
-1.71802e-07
8.18181e-08
-1.95559e-07
8.71547e-08
-2.20153e-07
9.25052e-08
-2.45739e-07
9.83756e-08
-2.7256e-07
1.05289e-07
-3.00948e-07
1.13781e-07
-3.31324e-07
1.24394e-07
-3.64204e-07
1.3768e-07
-4.00197e-07
1.54202e-07
-4.40012e-07
1.74534e-07
-4.84449e-07
1.99259e-07
-5.3441e-07
2.28968e-07
-5.90883e-07
2.64255e-07
-6.5494e-07
3.05705e-07
-7.27723e-07
3.53888e-07
-8.10419e-07
4.09336e-07
-9.04236e-07
4.7252e-07
-1.01036e-06
5.43817e-07
-1.12991e-06
6.23464e-07
-1.26385e-06
7.11496e-07
-1.41294e-06
8.07674e-07
-1.57762e-06
9.11403e-07
-1.75792e-06
1.02164e-06
-1.95336e-06
1.13683e-06
-2.16289e-06
1.25482e-06
-2.38481e-06
1.37289e-06
-2.61678e-06
1.48778e-06
-2.85588e-06
1.59579e-06
-3.0987e-06
1.693e-06
-3.34154e-06
1.77547e-06
-3.5806e-06
1.83953e-06
-3.81219e-06
1.88199e-06
-4.03296e-06
1.90038e-06
-4.24005e-06
1.89303e-06
-4.43117e-06
1.85915e-06
-4.60467e-06
1.79874e-06
-4.75949e-06
1.7125e-06
-4.89512e-06
1.60166e-06
-5.01149e-06
1.46779e-06
-5.10887e-06
1.31267e-06
-5.18774e-06
1.13812e-06
-5.24874e-06
9.45885e-07
-5.29251e-06
7.37579e-07
-5.31966e-06
5.14612e-07
-5.33061e-06
2.78196e-07
-5.32551e-06
2.92778e-08
-5.30422e-06
-2.30895e-07
-5.26604e-06
-5.01628e-07
-5.2097e-06
-7.81659e-07
-5.13321e-06
-1.06936e-06
-5.03383e-06
-1.36234e-06
-4.90803e-06
-1.6571e-06
-4.75159e-06
-1.94856e-06
-4.55981e-06
-2.22965e-06
-4.32804e-06
-2.49091e-06
-4.05226e-06
-2.7203e-06
-3.73017e-06
-2.9033e-06
-3.36228e-06
-3.02365e-06
-2.95325e-06
-3.06474e-06
-2.51286e-06
-3.01204e-06
-2.05648e-06
-2.85624e-06
-1.60428e-06
-2.59683e-06
-1.17909e-06
-2.24506e-06
-8.02965e-07
-1.82493e-06
-4.93391e-07
-1.37131e-06
-2.60364e-07
-9.2519e-07
-1.05403e-07
-5.2783e-07
-2.24903e-08
-2.1628e-07
-2.27919e-08
-1.74026e-09
-5.2337e-09
-7.42224e-09
-3.68119e-09
-1.70632e-08
5.39999e-09
-3.0393e-08
1.86741e-08
-4.69769e-08
3.3727e-08
-6.63059e-08
4.88526e-08
-8.78659e-08
6.29558e-08
-1.11185e-07
7.54448e-08
-1.35865e-07
8.61195e-08
-1.61597e-07
9.50706e-08
-1.88171e-07
1.02595e-07
-2.1548e-07
1.09126e-07
-2.43511e-07
1.15186e-07
-2.72352e-07
1.21346e-07
-3.02183e-07
1.28207e-07
-3.33281e-07
1.36387e-07
-3.66012e-07
1.46512e-07
-4.00839e-07
1.59221e-07
-4.38321e-07
1.75162e-07
-4.79112e-07
1.94993e-07
-5.23965e-07
2.19386e-07
-5.73725e-07
2.4902e-07
-6.29333e-07
2.84576e-07
-6.91808e-07
3.2673e-07
-7.62243e-07
3.7614e-07
-8.41778e-07
4.33423e-07
-9.31576e-07
4.99134e-07
-1.03279e-06
5.73729e-07
-1.14649e-06
6.57521e-07
-1.27364e-06
7.50616e-07
-1.41499e-06
8.5285e-07
-1.57101e-06
9.63693e-07
-1.74178e-06
1.08217e-06
-1.9269e-06
1.20677e-06
-2.12544e-06
1.33537e-06
-2.33585e-06
1.46523e-06
-2.55597e-06
1.59301e-06
-2.78307e-06
1.71488e-06
-3.01396e-06
1.82668e-06
-3.24515e-06
1.92418e-06
-3.47301e-06
2.00333e-06
-3.69403e-06
2.06055e-06
-3.90501e-06
2.09297e-06
-4.10319e-06
2.09856e-06
-4.2864e-06
2.07624e-06
-4.45308e-06
2.02582e-06
-4.60224e-06
1.94791e-06
-4.73345e-06
1.84372e-06
-4.84675e-06
1.71496e-06
-4.94253e-06
1.56356e-06
-5.02144e-06
1.39158e-06
-5.08434e-06
1.20102e-06
-5.1322e-06
9.93747e-07
-5.16602e-06
7.714e-07
-5.18675e-06
5.35344e-07
-5.19522e-06
2.86658e-07
-5.19198e-06
2.60434e-08
-5.17728e-06
-2.456e-07
-5.15082e-06
-5.28086e-07
-5.11168e-06
-8.20796e-07
-5.05814e-06
-1.1229e-06
-4.9875e-06
-1.43297e-06
-4.89605e-06
-1.74856e-06
-4.77894e-06
-2.06567e-06
-4.6304e-06
-2.3782e-06
-4.44397e-06
-2.67735e-06
-4.21317e-06
-2.9511e-06
-3.93247e-06
-3.184e-06
-3.59864e-06
-3.35748e-06
-3.2124e-06
-3.45097e-06
-2.78017e-06
-3.44428e-06
-2.31525e-06
-3.32116e-06
-1.83804e-06
-3.07404e-06
-1.37434e-06
-2.70876e-06
-9.51699e-07
-2.24757e-06
-5.94427e-07
-1.72858e-06
-3.1899e-07
-1.20063e-06
-1.31652e-07
-7.15168e-07
-2.89512e-08
-3.1898e-07
-5.17431e-08
-2.54088e-09
-2.69281e-09
-1.02956e-08
4.0736e-09
-2.29748e-08
1.80791e-08
-4.00361e-08
3.57355e-08
-6.08155e-08
5.45064e-08
-8.46203e-08
7.26574e-08
-1.10795e-07
8.91309e-08
-1.38767e-07
1.03417e-07
-1.6807e-07
1.15422e-07
-1.98355e-07
1.25355e-07
-2.29393e-07
1.33633e-07
-2.61073e-07
1.40806e-07
-2.93394e-07
1.47506e-07
-3.26459e-07
1.54412e-07
-3.60475e-07
1.62223e-07
-3.95743e-07
1.71655e-07
-4.32663e-07
1.83432e-07
-4.71729e-07
1.98287e-07
-5.13533e-07
2.16965e-07
-5.58759e-07
2.4022e-07
-6.08189e-07
2.68816e-07
-6.62693e-07
3.03523e-07
-7.23221e-07
3.45104e-07
-7.90797e-07
3.94306e-07
-8.66493e-07
4.51836e-07
-9.51408e-07
5.18338e-07
-1.04663e-06
5.94359e-07
-1.1532e-06
6.80299e-07
-1.27204e-06
7.7636e-07
-1.40389e-06
8.82468e-07
-1.54924e-06
9.98199e-07
-1.70823e-06
1.12268e-06
-1.88056e-06
1.2545e-06
-2.06544e-06
1.39164e-06
-2.2615e-06
1.53143e-06
-2.46682e-06
1.67054e-06
-2.67891e-06
1.8051e-06
-2.89484e-06
1.93081e-06
-3.11137e-06
2.04321e-06
-3.32509e-06
2.13791e-06
-3.53269e-06
2.21093e-06
-3.73109e-06
2.25895e-06
-3.91764e-06
2.27952e-06
-4.09022e-06
2.27114e-06
-4.24727e-06
2.2333e-06
-4.38784e-06
2.16639e-06
-4.51149e-06
2.07155e-06
-4.61823e-06
1.95046e-06
-4.70848e-06
1.80521e-06
-4.78296e-06
1.63804e-06
-4.84262e-06
1.45124e-06
-4.8886e-06
1.247e-06
-4.92216e-06
1.0273e-06
-4.94459e-06
7.93833e-07
-4.9572e-06
5.47948e-07
-4.96116e-06
2.90622e-07
-4.95749e-06
2.23762e-08
-4.94683e-06
-2.56259e-07
-4.92939e-06
-5.45525e-07
-4.90474e-06
-8.45452e-07
-4.87159e-06
-1.15605e-06
-4.82764e-06
-1.47692e-06
-4.76935e-06
-1.80685e-06
-4.69179e-06
-2.14323e-06
-4.58861e-06
-2.48138e-06
-4.45215e-06
-2.8138e-06
-4.27393e-06
-3.12931e-06
-4.04547e-06
-3.41246e-06
-3.75967e-06
-3.64329e-06
-3.41268e-06
-3.79796e-06
-3.00625e-06
-3.85071e-06
-2.54986e-06
-3.77755e-06
-2.06211e-06
-3.56179e-06
-1.57017e-06
-3.2007e-06
-1.10641e-06
-2.71133e-06
-7.02571e-07
-2.13242e-06
-3.83152e-07
-1.52004e-06
-1.60918e-07
-9.37402e-07
-3.6313e-08
-4.43586e-07
-8.80561e-08
-3.40002e-09
7.07233e-10
-1.3368e-08
1.40416e-08
-2.9274e-08
3.39852e-08
-5.02759e-08
5.67373e-08
-7.5459e-08
7.96895e-08
-1.03931e-07
1.0113e-07
-1.34887e-07
1.20087e-07
-1.67646e-07
1.36176e-07
-2.01672e-07
1.49448e-07
-2.36573e-07
1.60257e-07
-2.72103e-07
1.69163e-07
-3.08144e-07
1.76848e-07
-3.44706e-07
1.84068e-07
-3.81905e-07
1.91611e-07
-4.19969e-07
2.00286e-07
-4.59221e-07
2.10907e-07
-5.00083e-07
2.24294e-07
-5.43073e-07
2.41277e-07
-5.888e-07
2.62692e-07
-6.37967e-07
2.89386e-07
-6.91361e-07
3.22211e-07
-7.49852e-07
3.62014e-07
-8.14376e-07
4.09629e-07
-8.85924e-07
4.65854e-07
-9.65513e-07
5.31425e-07
-1.05416e-06
6.06986e-07
-1.15284e-06
6.93037e-07
-1.26243e-06
7.89887e-07
-1.38365e-06
8.97582e-07
-1.517e-06
1.01582e-06
-1.66268e-06
1.14388e-06
-1.82049e-06
1.28049e-06
-1.98978e-06
1.4238e-06
-2.16942e-06
1.57127e-06
-2.35771e-06
1.71972e-06
-2.55245e-06
1.86529e-06
-2.75102e-06
2.00367e-06
-2.95045e-06
2.13024e-06
-3.14761e-06
2.24037e-06
-3.3394e-06
2.32969e-06
-3.5229e-06
2.39442e-06
-3.69555e-06
2.4316e-06
-3.85527e-06
2.43924e-06
-4.00052e-06
2.41639e-06
-4.13029e-06
2.36307e-06
-4.24409e-06
2.28019e-06
-4.34188e-06
2.16934e-06
-4.42402e-06
2.03261e-06
-4.4912e-06
1.87239e-06
-4.54438e-06
1.69121e-06
-4.58473e-06
1.49159e-06
-4.6136e-06
1.27587e-06
-4.63246e-06
1.04617e-06
-4.64287e-06
8.04241e-07
-4.64638e-06
5.51459e-07
-4.64449e-06
2.88733e-07
-4.63857e-06
1.6453e-08
-4.62964e-06
-2.65185e-07
-4.6184e-06
-5.56766e-07
-4.60493e-06
-8.58919e-07
-4.58854e-06
-1.17244e-06
-4.56751e-06
-1.49795e-06
-4.53883e-06
-1.83553e-06
-4.49794e-06
-2.18412e-06
-4.43853e-06
-2.5408e-06
-4.35247e-06
-2.89986e-06
-4.23001e-06
-3.25178e-06
-4.06037e-06
-3.5821e-06
-3.83295e-06
-3.87071e-06
-3.53925e-06
-4.09166e-06
-3.17552e-06
-4.21444e-06
-2.74581e-06
-4.20726e-06
-2.2647e-06
-4.04289e-06
-1.75836e-06
-3.70704e-06
-1.2624e-06
-3.20729e-06
-8.15783e-07
-2.57903e-06
-4.52318e-07
-1.88351e-06
-1.93239e-07
-1.19648e-06
-4.46625e-08
-5.92162e-07
-1.32719e-07
-4.31748e-09
5.0247e-09
-1.66352e-08
2.63593e-08
-3.59466e-08
5.32966e-08
-6.10808e-08
8.18716e-08
-9.08512e-08
1.0946e-07
-1.24152e-07
1.3443e-07
-1.60018e-07
1.55953e-07
-1.97658e-07
1.73816e-07
-2.36461e-07
1.88251e-07
-2.75995e-07
1.99791e-07
-3.15992e-07
2.09159e-07
-3.56331e-07
2.17187e-07
-3.97025e-07
2.24762e-07
-4.38205e-07
2.32792e-07
-4.80111e-07
2.42192e-07
-5.23082e-07
2.53878e-07
-5.67554e-07
2.68766e-07
-6.14053e-07
2.87776e-07
-6.63195e-07
3.11834e-07
-7.15679e-07
3.4187e-07
-7.7228e-07
3.78812e-07
-8.33841e-07
4.23574e-07
-9.01255e-07
4.77043e-07
-9.75447e-07
5.40046e-07
-1.05735e-06
6.13326e-07
-1.14785e-06
6.9749e-07
-1.24778e-06
7.92967e-07
-1.35783e-06
8.99932e-07
-1.47848e-06
1.01824e-06
-1.60999e-06
1.14732e-06
-1.75224e-06
1.28613e-06
-1.90475e-06
1.433e-06
-2.06657e-06
1.58562e-06
-2.23628e-06
1.74098e-06
-2.41199e-06
1.89542e-06
-2.59138e-06
2.04468e-06
-2.77181e-06
2.1841e-06
-2.95046e-06
2.30889e-06
-3.12446e-06
2.41438e-06
-3.29111e-06
2.49634e-06
-3.44796e-06
2.55128e-06
-3.593e-06
2.57664e-06
-3.72469e-06
2.57093e-06
-3.84197e-06
2.53367e-06
-3.94431e-06
2.4654e-06
-4.03157e-06
2.36745e-06
-4.10403e-06
2.24181e-06
-4.16231e-06
2.09089e-06
-4.20729e-06
1.91737e-06
-4.2401e-06
1.72402e-06
-4.26206e-06
1.51355e-06
-4.27468e-06
1.28849e-06
-4.27956e-06
1.05105e-06
-4.27841e-06
8.03091e-07
-4.27295e-06
5.45994e-07
-4.26486e-06
2.80641e-07
-4.25573e-06
7.32852e-09
-4.24692e-06
-2.73999e-07
-4.23948e-06
-5.642e-07
-4.23401e-06
-8.64394e-07
-4.2304e-06
-1.17605e-06
-4.22762e-06
-1.50073e-06
-4.22344e-06
-1.83971e-06
-4.21405e-06
-2.19352e-06
-4.19372e-06
-2.56112e-06
-4.15458e-06
-2.939e-06
-4.08648e-06
-3.31988e-06
-3.97728e-06
-3.6913e-06
-3.81371e-06
-4.03427e-06
-3.58311e-06
-4.32226e-06
-3.27606e-06
-4.52149e-06
-2.89012e-06
-4.5932e-06
-2.43378e-06
-4.49923e-06
-1.9295e-06
-4.21133e-06
-1.41355e-06
-3.72324e-06
-9.30916e-07
-3.06166e-06
-5.25299e-07
-2.28913e-06
-2.28358e-07
-1.49342e-06
-5.40094e-08
-7.66511e-07
-1.86728e-07
-5.29506e-09
1.03198e-08
-2.00987e-08
4.1163e-08
-4.29899e-08
7.61878e-08
-7.24382e-08
1.1132e-07
-1.06963e-07
1.43984e-07
-1.45229e-07
1.72697e-07
-1.86106e-07
1.9683e-07
-2.28686e-07
2.16395e-07
-2.72283e-07
2.31849e-07
-3.16424e-07
2.43932e-07
-3.60818e-07
2.53554e-07
-4.05341e-07
2.6171e-07
-4.50007e-07
2.69428e-07
-4.94956e-07
2.7774e-07
-5.40433e-07
2.87669e-07
-5.86786e-07
3.00231e-07
-6.34452e-07
3.16432e-07
-6.83955e-07
3.3728e-07
-7.359e-07
3.63779e-07
-7.90962e-07
3.96933e-07
-8.49883e-07
4.37733e-07
-9.13454e-07
4.87145e-07
-9.82499e-07
5.46087e-07
-1.05785e-06
6.15396e-07
-1.14031e-06
6.95789e-07
-1.23064e-06
7.87817e-07
-1.32947e-06
8.91799e-07
-1.43729e-06
1.00775e-06
-1.55436e-06
1.13531e-06
-1.68066e-06
1.27362e-06
-1.81583e-06
1.4213e-06
-1.95912e-06
1.57629e-06
-2.10935e-06
1.73586e-06
-2.26495e-06
1.89658e-06
-2.42392e-06
2.05439e-06
-2.58397e-06
2.20473e-06
-2.74261e-06
2.34274e-06
-2.89726e-06
2.46354e-06
-3.04544e-06
2.56256e-06
-3.18488e-06
2.63578e-06
-3.31367e-06
2.68007e-06
-3.4303e-06
2.69327e-06
-3.53371e-06
2.67434e-06
-3.62331e-06
2.62327e-06
-3.69891e-06
2.541e-06
-3.7607e-06
2.42924e-06
-3.80919e-06
2.2903e-06
-3.84519e-06
2.12688e-06
-3.86972e-06
1.9419e-06
-3.88403e-06
1.73833e-06
-3.88953e-06
1.51905e-06
-3.88778e-06
1.28674e-06
-3.88044e-06
1.04371e-06
-3.86925e-06
7.91898e-07
-3.85596e-06
5.32705e-07
-3.84232e-06
2.67005e-07
-3.83002e-06
-4.97424e-09
-3.82059e-06
-2.83434e-07
-3.81534e-06
-5.69449e-07
-3.81524e-06
-8.64487e-07