/*--------------------------------*- C++ -*----------------------------------*\
  =========                 |
  \\      /  F ield         | OpenFOAM: The Open Source CFD Toolbox
   \\    /   O peration     | Website:  https://openfoam.org
    \\  /    A nd           | Version:  7
     \\/     M anipulation  |
\*---------------------------------------------------------------------------*/
FoamFile
{
    version     2.0;
    format      ascii;
    class       volVectorField;
    location    "0.5";
    object      U;
}
// * * * * * * * * * * * * * * * * * * * * * * * * * * * * * * * * * * * * * //

dimensions      [0 1 -1 0 0 0 0];

internalField   nonuniform List<vector> 
3200
(
(3.81417e-06 -3.79651e-06 0)
(5.16984e-05 -2.97951e-05 0)
(0.000157633 -4.54806e-05 0)
(0.000285588 -5.01948e-05 0)
(0.000414099 -4.8493e-05 0)
(0.000532193 -4.37573e-05 0)
(0.000634837 -3.80678e-05 0)
(0.000720928 -3.26234e-05 0)
(0.000791718 -2.80134e-05 0)
(0.000849613 -2.44458e-05 0)
(0.000897359 -2.19028e-05 0)
(0.00093752 -2.02304e-05 0)
(0.000972179 -1.92117e-05 0)
(0.00100279 -1.86071e-05 0)
(0.0010301 -1.81741e-05 0)
(0.00105414 -1.76885e-05 0)
(0.00107428 -1.69521e-05 0)
(0.00108926 -1.5793e-05 0)
(0.00109726 -1.40571e-05 0)
(0.0010959 -1.16159e-05 0)
(0.00108234 -8.34411e-06 0)
(0.0010533 -4.1496e-06 0)
(0.00100507 1.05159e-06 0)
(0.000933519 7.34047e-06 0)
(0.000834119 1.47984e-05 0)
(0.000701911 2.35129e-05 0)
(0.000531469 3.35874e-05 0)
(0.000316835 4.51539e-05 0)
(5.14141e-05 5.83887e-05 0)
(-0.000272151 7.35289e-05 0)
(-0.000662153 9.08874e-05 0)
(-0.001128 0.000110865 0)
(-0.00168042 0.000133952 0)
(-0.00233158 0.000160729 0)
(-0.00309526 0.000191844 0)
(-0.00398682 0.000227992 0)
(-0.00502309 0.000269867 0)
(-0.00622208 0.00031812 0)
(-0.00760254 0.000373294 0)
(-0.00918325 0.000435762 0)
(-0.0109821 0.000505653 0)
(-0.0130152 0.000582782 0)
(-0.0152953 0.00066657 0)
(-0.0178306 0.000755965 0)
(-0.0206232 0.000849373 0)
(-0.0236674 0.000944587 0)
(-0.0269483 0.00103874 0)
(-0.0304404 0.00112829 0)
(-0.0341062 0.001209 0)
(-0.0378952 0.00127602 0)
(-0.0417437 0.00132398 0)
(-0.0455745 0.0013471 0)
(-0.0492976 0.00133945 0)
(-0.0528112 0.0012952 0)
(-0.0560037 0.00120899 0)
(-0.0587568 0.0010764 0)
(-0.0609489 0.000894492 0)
(-0.0624614 0.000662486 0)
(-0.0631853 0.000383266 0)
(-0.0630195 6.4889e-05 0)
(-0.0618872 -0.0002916 0)
(-0.0597542 -0.000668671 0)
(-0.0566173 -0.00104771 0)
(-0.0525227 -0.00140752 0)
(-0.0475706 -0.00172463 0)
(-0.0419159 -0.00197533 0)
(-0.0357646 -0.0021384 0)
(-0.0293646 -0.0021981 0)
(-0.0229899 -0.00214698 0)
(-0.0169195 -0.00198783 0)
(-0.0114139 -0.00173424 0)
(-0.00669035 -0.00140916 0)
(-0.00290369 -0.00104185 0)
(-0.000134345 -0.00066393 0)
(0.00161402 -0.000304495 0)
(0.00241292 1.2287e-05 0)
(0.00239997 0.000261401 0)
(0.00177753 0.000414737 0)
(0.000868997 0.000417573 0)
(0.000197176 0.000199199 0)
(3.04099e-05 -5.19751e-05 0)
(0.000160285 -0.000159072 0)
(0.00038925 -0.000219834 0)
(0.00065315 -0.000237885 0)
(0.000913285 -0.000228406 0)
(0.0011487 -0.000204145 0)
(0.0013484 -0.000174067 0)
(0.00150892 -0.000143938 0)
(0.001632 -0.000117017 0)
(0.00172215 -9.47523e-05 0)
(0.00178498 -7.73645e-05 0)
(0.00182596 -6.42875e-05 0)
(0.00184963 -5.45e-05 0)
(0.0018591 -4.67479e-05 0)
(0.00185581 -3.96922e-05 0)
(0.00183951 -3.2003e-05 0)
(0.00180815 -2.24291e-05 0)
(0.00175802 -9.80185e-06 0)
(0.00168377 6.9682e-06 0)
(0.00157853 2.88861e-05 0)
(0.00143398 5.6896e-05 0)
(0.00124032 9.18772e-05 0)
(0.000986386 0.000134681 0)
(0.000659588 0.000186157 0)
(0.000245911 0.000247176 0)
(-0.000270163 0.000318665 0)
(-0.00090577 0.000401656 0)
(-0.00167982 0.000497338 0)
(-0.00261324 0.00060712 0)
(-0.00372921 0.000732689 0)
(-0.00505347 0.000876051 0)
(-0.00661465 0.00103955 0)
(-0.00844451 0.00122585 0)
(-0.010578 0.00143782 0)
(-0.0130534 0.00167841 0)
(-0.0159115 0.00195044 0)
(-0.0191953 0.00225626 0)
(-0.0229484 0.00259744 0)
(-0.0272135 0.0029744 0)
(-0.0320298 0.00338596 0)
(-0.0374302 0.00382899 0)
(-0.0434385 0.00429801 0)
(-0.0500651 0.00478491 0)
(-0.0573039 0.0052787 0)
(-0.0651287 0.00576537 0)
(-0.0734894 0.00622796 0)
(-0.0823099 0.00664669 0)
(-0.0914858 0.00699938 0)
(-0.100884 0.00726204 0)
(-0.110343 0.00740962 0)
(-0.119675 0.00741697 0)
(-0.128668 0.00725998 0)
(-0.137092 0.0069168 0)
(-0.144705 0.00636925 0)
(-0.151259 0.00560426 0)
(-0.156508 0.00461558 0)
(-0.160216 0.00340532 0)
(-0.162173 0.00198567 0)
(-0.162198 0.000382416 0)
(-0.160157 -0.00135993 0)
(-0.155963 -0.00320095 0)
(-0.149605 -0.00506998 0)
(-0.141149 -0.00688583 0)
(-0.130746 -0.00855795 0)
(-0.11864 -0.0099906 0)
(-0.105166 -0.0110901 0)
(-0.0907452 -0.0117742 0)
(-0.0758698 -0.0119822 0)
(-0.0610771 -0.0116856 0)
(-0.0469178 -0.0108951 0)
(-0.0339163 -0.00966393 0)
(-0.0225285 -0.00808495 0)
(-0.0131025 -0.00628119 0)
(-0.00584876 -0.00439216 0)
(-0.000821478 -0.00255821 0)
(0.00208535 -0.000910506 0)
(0.00313636 0.000423593 0)
(0.00274354 0.00130018 0)
(0.00152809 0.00152845 0)
(0.000405035 0.000856849 0)
(4.73237e-05 -0.000160065 0)
(0.000223434 -0.000389152 0)
(0.000511305 -0.000509156 0)
(0.000828939 -0.000540102 0)
(0.00113019 -0.000511423 0)
(0.00139097 -0.000448927 0)
(0.00159846 -0.000372089 0)
(0.00174868 -0.00029413 0)
(0.00184398 -0.000222959 0)
(0.00189031 -0.000162383 0)
(0.00189498 -0.000113236 0)
(0.00186515 -7.43369e-05 0)
(0.00180666 -4.32495e-05 0)
(0.00172339 -1.68404e-05 0)
(0.00161681 8.35089e-06 0)
(0.00148583 3.58572e-05 0)
(0.00132674 6.91217e-05 0)
(0.0011332 0.000111451 0)
(0.000896309 0.000166 0)
(0.000604678 0.000235775 0)
(0.000244446 0.000323656 0)
(-0.000200703 0.000432449 0)
(-0.000749546 0.000564931 0)
(-0.00142336 0.000723909 0)
(-0.002246 0.000912288 0)
(-0.00324402 0.00113315 0)
(-0.00444683 0.00138985 0)
(-0.00588695 0.00168613 0)
(-0.00760021 0.00202625 0)
(-0.00962612 0.00241505 0)
(-0.0120081 0.00285802 0)
(-0.0147935 0.00336124 0)
(-0.0180342 0.00393122 0)
(-0.0217856 0.00457459 0)
(-0.0261066 0.00529754 0)
(-0.031058 0.00610517 0)
(-0.0367009 0.00700062 0)
(-0.043094 0.007984 0)
(-0.0502896 0.00905141 0)
(-0.0583304 0.0101938 0)
(-0.0672437 0.0113961 0)
(-0.0770368 0.0126365 0)
(-0.0876914 0.0138856 0)
(-0.099159 0.0151068 0)
(-0.111356 0.0162565 0)
(-0.124162 0.0172848 0)
(-0.137418 0.018137 0)
(-0.150927 0.0187555 0)
(-0.164455 0.0190823 0)
(-0.17774 0.0190614 0)
(-0.190495 0.0186416 0)
(-0.202419 0.0177792 0)
(-0.213202 0.0164407 0)
(-0.22254 0.0146052 0)
(-0.230137 0.0122665 0)
(-0.235721 0.00943555 0)
(-0.239052 0.0061419 0)
(-0.239926 0.0024363 0)
(-0.238182 -0.00160705 0)
(-0.233727 -0.00588762 0)
(-0.226526 -0.0102841 0)
(-0.216615 -0.0146495 0)
(-0.204116 -0.0188134 0)
(-0.18924 -0.0225889 0)
(-0.172293 -0.0257813 0)
(-0.153679 -0.0282013 0)
(-0.133896 -0.0296817 0)
(-0.113524 -0.0300969 0)
(-0.093203 -0.0293824 0)
(-0.0736045 -0.0275518 0)
(-0.055386 -0.0247061 0)
(-0.0391439 -0.0210321 0)
(-0.0253629 -0.0167891 0)
(-0.0143701 -0.0122841 0)
(-0.00630045 -0.00784365 0)
(-0.00107833 -0.00379165 0)
(0.00158081 -0.000443433 0)
(0.00216835 0.00186974 0)
(0.00142778 0.00276699 0)
(0.000418352 0.00175853 0)
(5.28358e-05 -0.000291333 0)
(0.000240108 -0.000652874 0)
(0.000532383 -0.000825357 0)
(0.000838082 -0.000855624 0)
(0.00110851 -0.000791337 0)
(0.00131993 -0.000673142 0)
(0.00146054 -0.000532065 0)
(0.00152771 -0.000389526 0)
(0.0015253 -0.000258578 0)
(0.00146072 -0.000145606 0)
(0.00134265 -5.20278e-05 0)
(0.00117929 2.42145e-05 0)
(0.000977113 8.74368e-05 0)
(0.000740055 0.000143273 0)
(0.00046904 0.000198026 0)
(0.000161711 0.000258225 0)
(-0.000187693 0.000330375 0)
(-0.000588369 0.000420827 0)
(-0.00105295 0.000535738 0)
(-0.00159751 0.000681092 0)
(-0.00224155 0.000862743 0)
(-0.00300804 0.00108649 0)
(-0.00392353 0.00135815 0)
(-0.00501819 0.00168366 0)
(-0.00632594 0.00206918 0)
(-0.00788465 0.0025212 0)
(-0.00973628 0.00304672 0)
(-0.0119271 0.00365336 0)
(-0.014508 0.00434953 0)
(-0.0175345 0.00514447 0)
(-0.021067 0.00604822 0)
(-0.0251705 0.00707143 0)
(-0.0299142 0.00822485 0)
(-0.0353706 0.00951857 0)
(-0.0416141 0.0109609 0)
(-0.048718 0.0125569 0)
(-0.0567517 0.0143066 0)
(-0.0657759 0.0162032 0)
(-0.0758375 0.0182308 0)
(-0.0869635 0.0203632 0)
(-0.0991544 0.0225618 0)
(-0.112378 0.0247753 0)
(-0.126563 0.0269395 0)
(-0.141597 0.0289779 0)
(-0.157319 0.0308044 0)
(-0.173528 0.0323255 0)
(-0.189976 0.0334448 0)
(-0.206383 0.0340667 0)
(-0.222439 0.0341021 0)
(-0.237817 0.0334723 0)
(-0.252184 0.0321132 0)
(-0.265208 0.029979 0)
(-0.276574 0.0270441 0)
(-0.285989 0.0233055 0)
(-0.293188 0.0187837 0)
(-0.297941 0.013524 0)
(-0.300059 0.00759727 0)
(-0.299392 0.00110268 0)
(-0.295835 -0.00583078 0)
(-0.289334 -0.0130498 0)
(-0.279892 -0.0203602 0)
(-0.267567 -0.0275396 0)
(-0.252486 -0.0343354 0)
(-0.234857 -0.0404707 0)
(-0.214971 -0.045655 0)
(-0.193217 -0.0496015 0)
(-0.170081 -0.0520497 0)
(-0.146147 -0.052794 0)
(-0.12208 -0.0517143 0)
(-0.098605 -0.0488048 0)
(-0.0764616 -0.0441945 0)
(-0.0563555 -0.0381525 0)
(-0.0388951 -0.0310753 0)
(-0.0245318 -0.0234544 0)
(-0.0135084 -0.0158341 0)
(-0.00582562 -0.00877277 0)
(-0.00123311 -0.00282264 0)
(0.000763932 0.00146332 0)
(0.000931048 0.00348411 0)
(0.000335806 0.00249853 0)
(5.06696e-05 -0.0004215 0)
(0.000221147 -0.000902852 0)
(0.00047121 -0.00110808 0)
(0.000709305 -0.00111604 0)
(0.000888445 -0.00099553 0)
(0.000987602 -0.000803109 0)
(0.000998049 -0.00058151 0)
(0.000919991 -0.000360155 0)
(0.000759644 -0.000156946 0)
(0.00052628 1.94999e-05 0)
(0.000229871 0.000167584 0)
(-0.000120647 0.000290698 0)
(-0.000518615 0.000395538 0)
(-0.000960499 0.000490811 0)
(-0.0014464 0.000586297 0)
(-0.00198036 0.000692222 0)
(-0.00257052 0.000818887 0)
(-0.00322923 0.000976485 0)
(-0.00397309 0.00117504 0)
(-0.00482301 0.00142445 0)
(-0.00580429 0.00173453 0)
(-0.00694671 0.00211511 0)
(-0.00828466 0.00257616 0)
(-0.00985732 0.0031279 0)
(-0.0117087 0.00378095 0)
(-0.0138881 0.00454641 0)
(-0.0164497 0.0054361 0)
(-0.0194533 0.00646266 0)
(-0.0229641 0.0076396 0)
(-0.0270527 0.00898132 0)
(-0.0317945 0.0105028 0)
(-0.0372695 0.0122191 0)
(-0.0435606 0.0141442 0)
(-0.050752 0.0162897 0)
(-0.0589258 0.0186629 0)
(-0.0681587 0.0212639 0)
(-0.0785161 0.0240831 0)
(-0.0900466 0.0270982 0)
(-0.102774 0.0302713 0)
(-0.116692 0.0335469 0)
(-0.131754 0.0368502 0)
(-0.147869 0.0400879 0)
(-0.164898 0.043149 0)
(-0.182653 0.0459088 0)
(-0.200896 0.0482332 0)
(-0.219349 0.0499858 0)
(-0.2377 0.0510339 0)
(-0.255616 0.0512566 0)
(-0.272755 0.0505506 0)
(-0.288779 0.0488355 0)
(-0.303365 0.0460574 0)
(-0.316217 0.0421905 0)
(-0.32707 0.0372375 0)
(-0.335691 0.031229 0)
(-0.341888 0.0242224 0)
(-0.345501 0.0163013 0)
(-0.346403 0.00757574 0)
(-0.344498 -0.00181581 0)
(-0.339721 -0.0117052 0)
(-0.332038 -0.0218938 0)
(-0.321446 -0.0321418 0)
(-0.30798 -0.0421714 0)
(-0.291725 -0.0516655 0)
(-0.272828 -0.0602712 0)
(-0.251512 -0.06761 0)
(-0.22809 -0.0732966 0)
(-0.202986 -0.076966 0)
(-0.176738 -0.0783111 0)
(-0.149997 -0.0771254 0)
(-0.123512 -0.0733478 0)
(-0.0980934 -0.0670994 0)
(-0.0745547 -0.0587033 0)
(-0.0536431 -0.0486773 0)
(-0.0359599 -0.0376988 0)
(-0.0218892 -0.0265484 0)
(-0.0115466 -0.0160479 0)
(-0.0047585 -0.00701863 0)
(-0.00106687 -0.000270621 0)
(0.000263525 0.00336348 0)
(0.0002238 0.00290957 0)
(4.34959e-05 -0.000534297 0)
(0.000175713 -0.00110445 0)
(0.000344955 -0.00131233 0)
(0.000468459 -0.00127018 0)
(0.000505093 -0.0010693 0)
(0.000438645 -0.000782568 0)
(0.000265145 -0.000464128 0)
(-1.10878e-05 -0.000150788 0)
(-0.000380652 0.000135447 0)
(-0.000832017 0.000384458 0)
(-0.00135381 0.000595157 0)
(-0.00193648 0.000772923 0)
(-0.00257344 0.000927466 0)
(-0.00326192 0.00107118 0)
(-0.0040034 0.00121796 0)
(-0.00480394 0.00138238 0)
(-0.00567439 0.00157925 0)
(-0.00663049 0.00182336 0)
(-0.00769302 0.00212944 0)
(-0.00888789 0.00251217 0)
(-0.0102463 0.00298629 0)
(-0.0118048 0.00356669 0)
(-0.0136058 0.00426856 0)
(-0.0156972 0.0051075 0)
(-0.018133 0.00609967 0)
(-0.0209732 0.00726187 0)
(-0.0242839 0.0086117 0)
(-0.0281374 0.0101676 0)
(-0.0326116 0.0119487 0)
(-0.03779 0.0139747 0)
(-0.0437601 0.0162649 0)
(-0.0506125 0.0188374 0)
(-0.0584385 0.0217073 0)
(-0.0673264 0.0248837 0)
(-0.0773574 0.0283675 0)
(-0.0885998 0.0321469 0)
(-0.101102 0.0361937 0)
(-0.114886 0.0404596 0)
(-0.129936 0.0448729 0)
(-0.146196 0.0493369 0)
(-0.163561 0.0537296 0)
(-0.181871 0.0579063 0)
(-0.200917 0.0617043 0)
(-0.220441 0.0649498 0)
(-0.240143 0.0674674 0)
(-0.259697 0.0690889 0)
(-0.278763 0.069664 0)
(-0.297001 0.0690675 0)
(-0.314086 0.0672062 0)
(-0.329718 0.0640215 0)
(-0.343636 0.0594902 0)
(-0.355612 0.0536228 0)
(-0.365461 0.0464599 0)
(-0.373034 0.0380692 0)
(-0.378211 0.0285417 0)
(-0.380898 0.0179904 0)
(-0.381019 0.0065504 0)
(-0.378511 -0.00561932 0)
(-0.373323 -0.0183335 0)
(-0.365408 -0.0313697 0)
(-0.354731 -0.0444653 0)
(-0.341272 -0.05731 0)
(-0.32504 -0.069541 0)
(-0.306088 -0.0807434 0)
(-0.284532 -0.0904572 0)
(-0.260577 -0.0981949 0)
(-0.234542 -0.103472 0)
(-0.206885 -0.105852 0)
(-0.178208 -0.105002 0)
(-0.149263 -0.100759 0)
(-0.120918 -0.0931849 0)
(-0.0941029 -0.0826152 0)
(-0.0697278 -0.0696624 0)
(-0.0485826 -0.0551847 0)
(-0.0312388 -0.0402145 0)
(-0.0179733 -0.0258701 0)
(-0.00872993 -0.013279 0)
(-0.00311944 -0.00353926 0)
(-0.00046551 0.00226581 0)
(0.000111185 0.0029486 0)
(3.29027e-05 -0.000617805 0)
(0.000110266 -0.0012294 0)
(0.000167136 -0.00139976 0)
(0.000136703 -0.00127371 0)
(-1.24953e-05 -0.00096512 0)
(-0.000289781 -0.000562719 0)
(-0.000692791 -0.000131256 0)
(-0.00121195 0.000286128 0)
(-0.00183391 0.000664422 0)
(-0.00254447 0.000993054 0)
(-0.00333068 0.00127239 0)
(-0.0041824 0.00151063 0)
(-0.00509332 0.00172123 0)
(-0.00606162 0.00192097 0)
(-0.00709046 0.00212848 0)
(-0.00818819 0.00236334 0)
(-0.00936857 0.00264553 0)
(-0.010651 0.00299516 0)
(-0.0120604 0.00343243 0)
(-0.0136279 0.00397765 0)
(-0.0153906 0.00465137 0)
(-0.0173917 0.00547447 0)
(-0.0196812 0.00646833 0)
(-0.0223155 0.00765486 0)
(-0.025358 0.00905669 0)
(-0.0288785 0.0106971 0)
(-0.0329537 0.0126 0)
(-0.0376664 0.0147901 0)
(-0.0431051 0.0172918 0)
(-0.0493626 0.0201294 0)
(-0.0565345 0.0233249 0)
(-0.0647164 0.0268969 0)
(-0.0740008 0.0308573 0)
(-0.0844715 0.0352074 0)
(-0.0961986 0.0399345 0)
(-0.10923 0.0450058 0)
(-0.123586 0.0503645 0)
(-0.139246 0.0559254 0)
(-0.156147 0.0615721 0)
(-0.174173 0.0671573 0)
(-0.193155 0.0725053 0)
(-0.21287 0.0774183 0)
(-0.233049 0.0816852 0)
(-0.253384 0.0850935 0)
(-0.273545 0.0874418 0)
(-0.293195 0.0885516 0)
(-0.312005 0.0882778 0)
(-0.329671 0.0865156 0)
(-0.345922 0.0832033 0)
(-0.360532 0.0783212 0)
(-0.373317 0.0718885 0)
(-0.384134 0.0639565 0)
(-0.39288 0.0546025 0)
(-0.399476 0.0439239 0)
(-0.403868 0.0320338 0)
(-0.406007 0.0190588 0)
(-0.405851 0.0051406 0)
(-0.403352 -0.00956037 0)
(-0.398452 -0.0248606 0)
(-0.391084 -0.0405398 0)
(-0.381166 -0.0563331 0)
(-0.368615 -0.0719189 0)
(-0.353352 -0.0869085 0)
(-0.335321 -0.100841 0)
(-0.314515 -0.113184 0)
(-0.291003 -0.12335 0)
(-0.264968 -0.130722 0)
(-0.236743 -0.134706 0)
(-0.206844 -0.1348 0)
(-0.175982 -0.13068 0)
(-0.145056 -0.122286 0)
(-0.115106 -0.1099 0)
(-0.0872212 -0.0941848 0)
(-0.0624228 -0.0761594 0)
(-0.0415281 -0.0571209 0)
(-0.0250372 -0.0385202 0)
(-0.0130635 -0.0218399 0)
(-0.00532338 -0.00851049 0)
(-0.0012199 0.000106017 0)
(5.87393e-06 0.00260784 0)
(1.98151e-05 -0.000663004 0)
(2.91756e-05 -0.00125478 0)
(-5.22531e-05 -0.00133816 0)
(-0.000269572 -0.00108887 0)
(-0.000641189 -0.000642293 0)
(-0.00116753 -0.000101847 0)
(-0.00183842 0.000458511 0)
(-0.00263795 0.000990776 0)
(-0.00354814 0.00146837 0)
(-0.00455171 0.0018816 0)
(-0.00563398 0.00223342 0)
(-0.00678419 0.00253585 0)
(-0.00799639 0.00280694 0)
(-0.00926992 0.00306854 0)
(-0.0106097 0.0033447 0)
(-0.0120267 0.00366064 0)
(-0.0135376 0.00404213 0)
(-0.0151656 0.00451528 0)
(-0.0169399 0.00510646 0)
(-0.0188966 0.00584234 0)
(-0.0210784 0.00675005 0)
(-0.0235351 0.00785729 0)
(-0.0263237 0.00919237 0)
(-0.0295083 0.0107843 0)
(-0.0331604 0.0126627 0)
(-0.0373584 0.0148577 0)
(-0.0421876 0.0173998 0)
(-0.0477387 0.0203192 0)
(-0.0541072 0.0236451 0)
(-0.0613913 0.0274043 0)
(-0.069689 0.0316189 0)
(-0.0790945 0.0363038 0)
(-0.0896934 0.0414622 0)
(-0.101556 0.0470808 0)
(-0.114732 0.0531246 0)
(-0.129239 0.0595308 0)
(-0.145055 0.0662037 0)
(-0.162115 0.0730118 0)
(-0.1803 0.0797868 0)
(-0.199436 0.0863266 0)
(-0.219297 0.0924024 0)
(-0.23961 0.0977694 0)
(-0.26007 0.102181 0)
(-0.280349 0.105403 0)
(-0.300118 0.10723 0)
(-0.319065 0.107497 0)
(-0.336904 0.106086 0)
(-0.353394 0.102931 0)
(-0.368339 0.0980147 0)
(-0.38159 0.0913649 0)
(-0.393043 0.0830434 0)
(-0.402632 0.0731385 0)
(-0.410319 0.0617554 0)
(-0.416082 0.0490099 0)
(-0.419912 0.0350237 0)
(-0.421794 0.019923 0)
(-0.421706 0.00384083 0)
(-0.41961 -0.0130771 0)
(-0.415446 -0.0306656 0)
(-0.409125 -0.0487249 0)
(-0.40053 -0.0670074 0)
(-0.38952 -0.0852016 0)
(-0.375937 -0.102915 0)
(-0.359621 -0.119664 0)
(-0.340433 -0.134861 0)
(-0.318291 -0.147828 0)
(-0.293211 -0.157817 0)
(-0.265359 -0.164057 0)
(-0.235105 -0.165837 0)
(-0.203061 -0.162607 0)
(-0.170102 -0.154103 0)
(-0.137338 -0.140471 0)
(-0.106036 -0.122343 0)
(-0.0774778 -0.100855 0)
(-0.0527896 -0.0775657 0)
(-0.0327718 -0.054297 0)
(-0.0177807 -0.0329494 0)
(-0.00768887 -0.0153512 0)
(-0.00200509 -0.00319282 0)
(-9.44791e-05 0.00188288 0)
(4.74801e-06 -0.000662734 0)
(-6.47179e-05 -0.0011619 0)
(-0.000306119 -0.00110074 0)
(-0.00073808 -0.00068393 0)
(-0.00136302 -6.65672e-05 0)
(-0.00217059 0.000635053 0)
(-0.0031414 0.00133968 0)
(-0.00425224 0.00199634 0)
(-0.00547988 0.00257863 0)
(-0.00680358 0.00307929 0)
(-0.00820675 0.00350522 0)
(-0.00967803 0.00387335 0)
(-0.0112118 0.00420723 0)
(-0.0128088 0.00453456 0)
(-0.0144757 0.00488547 0)
(-0.0162261 0.0052914 0)
(-0.0180798 0.00578453 0)
(-0.0200636 0.00639752 0)
(-0.0222109 0.00716352 0)
(-0.0245626 0.00811621 0)
(-0.0271665 0.00928994 0)
(-0.0300784 0.0107198 0)
(-0.0333613 0.0124415 0)
(-0.0370859 0.0144916 0)
(-0.0413304 0.016907 0)
(-0.0461797 0.0197245 0)
(-0.0517248 0.0229806 0)
(-0.0580612 0.0267101 0)
(-0.0652873 0.0309449 0)
(-0.0735015 0.0357115 0)
(-0.0827983 0.0410284 0)
(-0.0932635 0.0469014 0)
(-0.104968 0.0533187 0)
(-0.117961 0.0602447 0)
(-0.132262 0.0676136 0)
(-0.147851 0.0753237 0)
(-0.164662 0.0832329 0)
(-0.18258 0.0911576 0)
(-0.201435 0.098875 0)
(-0.221002 0.106131 0)
(-0.241016 0.112651 0)
(-0.261177 0.118156 0)
(-0.281166 0.122383 0)
(-0.300666 0.125097 0)
(-0.319379 0.126111 0)
(-0.337038 0.12529 0)
(-0.353422 0.12256 0)
(-0.368358 0.117905 0)
(-0.381724 0.111356 0)
(-0.393442 0.102985 0)
(-0.403475 0.0928915 0)
(-0.411813 0.0811927 0)
(-0.418468 0.0680121 0)
(-0.423461 0.0534742 0)
(-0.426814 0.0376994 0)
(-0.428542 0.0208045 0)
(-0.428643 0.00290469 0)
(-0.427095 -0.0158797 0)
(-0.423846 -0.0354127 0)
(-0.4188 -0.0555292 0)
(-0.411826 -0.0760168 0)
(-0.402746 -0.096596 0)
(-0.391342 -0.116897 0)
(-0.377364 -0.13644 0)
(-0.36055 -0.154613 0)
(-0.340662 -0.170675 0)
(-0.317529 -0.183757 0)
(-0.291109 -0.192914 0)
(-0.261567 -0.197195 0)
(-0.229338 -0.195768 0)
(-0.195191 -0.188075 0)
(-0.160235 -0.174008 0)
(-0.125869 -0.15406 0)
(-0.0936397 -0.129395 0)
(-0.0650339 -0.101799 0)
(-0.0412395 -0.0734917 0)
(-0.0229487 -0.0468683 0)
(-0.0102656 -0.0242459 0)
(-0.00284689 -0.00772382 0)
(-0.000196881 0.000757933 0)
(-1.20782e-05 -0.000610998 0)
(-0.00016966 -0.000934995 0)
(-0.00058953 -0.000664882 0)
(-0.00125981 -3.20589e-05 0)
(-0.00216427 0.000790891 0)
(-0.00328009 0.0016772 0)
(-0.00457737 0.00254073 0)
(-0.0060247 0.00332976 0)
(-0.00759305 0.00402017 0)
(-0.00925793 0.00460889 0)
(-0.0110007 0.00510824 0)
(-0.0128093 0.00554126 0)
(-0.0146787 0.00593797 0)
(-0.0166106 0.00633269 0)
(-0.0186139 0.00676226 0)
(-0.0207045 0.00726492 0)
(-0.0229054 0.00787975 0)
(-0.0252467 0.00864649 0)
(-0.0277657 0.00960553 0)
(-0.0305075 0.010798 0)
(-0.0335248 0.012266 0)
(-0.0368778 0.0140522 0)
(-0.0406347 0.0162001 0)
(-0.0448712 0.0187536 0)
(-0.04967 0.0217567 0)
(-0.0551197 0.0252524 0)
(-0.0613142 0.0292817 0)
(-0.0683498 0.0338823 0)
(-0.0763233 0.0390861 0)
(-0.0853278 0.0449158 0)
(-0.0954484 0.0513813 0)
(-0.106756 0.0584736 0)
(-0.1193 0.0661591 0)
(-0.133102 0.0743723 0)
(-0.148145 0.0830096 0)
(-0.164372 0.0919239 0)
(-0.18167 0.100922 0)
(-0.19988 0.109768 0)
(-0.21879 0.118187 0)
(-0.238142 0.125882 0)
(-0.25765 0.132545 0)
(-0.277007 0.137882 0)
(-0.295911 0.14163 0)
(-0.314074 0.143574 0)
(-0.331246 0.14356 0)
(-0.347218 0.141499 0)
(-0.361832 0.137368 0)
(-0.374982 0.131197 0)
(-0.386605 0.123067 0)
(-0.396681 0.113086 0)
(-0.405221 0.101386 0)
(-0.412256 0.088103 0)
(-0.417833 0.0733733 0)
(-0.422007 0.057324 0)
(-0.424829 0.0400707 0)
(-0.426341 0.0217171 0)
(-0.42657 0.00235692 0)
(-0.425517 -0.0179195 0)
(-0.423151 -0.0390124 0)
(-0.419395 -0.0608014 0)
(-0.41412 -0.083125 0)
(-0.407139 -0.105757 0)
(-0.398198 -0.128377 0)
(-0.386986 -0.150542 0)
(-0.373141 -0.171658 0)
(-0.356277 -0.190954 0)
(-0.336036 -0.207481 0)
(-0.312144 -0.220136 0)
(-0.284508 -0.227727 0)
(-0.253311 -0.229096 0)
(-0.219115 -0.223306 0)
(-0.182922 -0.209869 0)
(-0.146174 -0.188984 0)
(-0.110641 -0.161703 0)
(-0.0781891 -0.129952 0)
(-0.0504749 -0.0963491 0)
(-0.0286376 -0.0638572 0)
(-0.0131139 -0.035402 0)
(-0.00377781 -0.0136076 0)
(-0.000309877 -0.000800046 0)
(-3.05321e-05 -0.000502496 0)
(-0.000284543 -0.000560323 0)
(-0.000899141 -1.10235e-05 0)
(-0.00182828 0.000889679 0)
(-0.00303464 0.00195444 0)
(-0.00448138 0.0030489 0)
(-0.00612693 0.00408486 0)
(-0.0079309 0.00501253 0)
(-0.00985798 0.00581233 0)
(-0.0118797 0.00648737 0)
(-0.0139752 0.007057 0)
(-0.0161318 0.00755164 0)
(-0.0183446 0.00800874 0)
(-0.0206169 0.00847003 0)
(-0.0229593 0.00897964 0)
(-0.0253902 0.0095831 0)
(-0.0279351 0.0103268 0)
(-0.0306273 0.011258 0)
(-0.0335076 0.0124245 0)
(-0.0366245 0.0138754 0)
(-0.0400342 0.0156603 0)
(-0.0438008 0.0178299 0)
(-0.0479957 0.0204352 0)
(-0.0526976 0.0235272 0)
(-0.0579911 0.027156 0)
(-0.0639662 0.0313693 0)
(-0.0707155 0.0362114 0)
(-0.0783322 0.0417201 0)
(-0.0869068 0.0479238 0)
(-0.0965222 0.0548375 0)
(-0.107248 0.0624569 0)
(-0.119136 0.0707528 0)
(-0.132208 0.0796634 0)
(-0.146455 0.0890873 0)
(-0.161826 0.098878 0)
(-0.17822 0.10884 0)
(-0.195492 0.118729 0)
(-0.213442 0.128259 0)
(-0.231834 0.137114 0)
(-0.250394 0.144963 0)
(-0.268834 0.151484 0)
(-0.286864 0.156383 0)
(-0.304211 0.159414 0)
(-0.320633 0.160397 0)
(-0.335932 0.159221 0)
(-0.349956 0.155846 0)
(-0.362605 0.150298 0)
(-0.373824 0.142655 0)
(-0.383599 0.133037 0)
(-0.391949 0.121585 0)
(-0.398918 0.108452 0)
(-0.404568 0.093793 0)
(-0.408975 0.0777518 0)
(-0.412218 0.0604578 0)
(-0.414378 0.0420216 0)
(-0.415527 0.0225345 0)
(-0.415723 0.00206953 0)
(-0.415002 -0.0193133 0)
(-0.413362 -0.0415539 0)
(-0.410759 -0.0645834 0)
(-0.407089 -0.0883019 0)
(-0.402177 -0.112554 0)
(-0.395769 -0.137094 0)
(-0.38752 -0.161552 0)
(-0.377004 -0.18539 0)
(-0.363721 -0.207862 0)
(-0.347143 -0.227989 0)
(-0.326767 -0.244556 0)
(-0.302217 -0.256155 0)
(-0.273363 -0.261295 0)
(-0.240459 -0.258596 0)
(-0.204275 -0.247066 0)
(-0.166165 -0.226429 0)
(-0.12802 -0.197429 0)
(-0.0920537 -0.161976 0)
(-0.0604426 -0.123021 0)
(-0.0348869 -0.084152 0)
(-0.0162843 -0.049041 0)
(-0.00482759 -0.0209923 0)
(-0.000441148 -0.00284274 0)
(-5.05667e-05 -0.000332298 0)
(-0.000408713 -2.55259e-05 0)
(-0.00123275 0.00087809 0)
(-0.00243893 0.00210116 0)
(-0.00396658 0.00344476 0)
(-0.00576333 0.00477032 0)
(-0.00777494 0.00599079 0)
(-0.00995133 0.0070613 0)
(-0.0122505 0.0079694 0)
(-0.0146399 0.0087265 0)
(-0.0170962 0.00936067 0)
(-0.0196062 0.00991101 0)
(-0.0221652 0.0104234 0)
(-0.0247776 0.0109476 0)
(-0.0274559 0.0115357 0)
(-0.0302203 0.0122408 0)
(-0.033099 0.013117 0)
(-0.0361276 0.0142191 0)
(-0.0393497 0.0156028 0)
(-0.0428162 0.0173248 0)
(-0.0465859 0.0194424 0)
(-0.0507249 0.0220139 0)
(-0.0553061 0.0250972 0)
(-0.0604089 0.0287496 0)
(-0.0661173 0.033026 0)
(-0.072519 0.0379776 0)
(-0.0797021 0.0436488 0)
(-0.0877528 0.050075 0)
(-0.0967507 0.0572773 0)
(-0.106764 0.0652585 0)
(-0.117843 0.0739955 0)
(-0.130016 0.0834335 0)
(-0.143278 0.0934775 0)
(-0.157586 0.103986 0)
(-0.172856 0.114768 0)
(-0.188956 0.12558 0)
(-0.205708 0.13613 0)
(-0.222895 0.146091 0)
(-0.240266 0.155115 0)
(-0.25755 0.162855 0)
(-0.274475 0.168985 0)
(-0.29078 0.173228 0)
(-0.306233 0.175369 0)
(-0.320641 0.175268 0)
(-0.333856 0.172859 0)
(-0.345777 0.168154 0)
(-0.356351 0.161222 0)
(-0.365561 0.152183 0)
(-0.373428 0.141188 0)
(-0.379997 0.128405 0)
(-0.385338 0.114009 0)
(-0.389535 0.0981676 0)
(-0.392687 0.0810338 0)
(-0.394896 0.0627405 0)
(-0.396268 0.0433958 0)
(-0.396905 0.023081 0)
(-0.396897 0.00185128 0)
(-0.396312 -0.0202607 0)
(-0.395186 -0.0432351 0)
(-0.393516 -0.0670558 0)
(-0.391234 -0.0916904 0)
(-0.388202 -0.117065 0)
(-0.384188 -0.143029 0)
(-0.378855 -0.169313 0)
(-0.371751 -0.195476 0)
(-0.362311 -0.220852 0)
(-0.349878 -0.244494 0)
(-0.333755 -0.265145 0)
(-0.31329 -0.28124 0)
(-0.288009 -0.290988 0)
(-0.257786 -0.292544 0)
(-0.223034 -0.284316 0)
(-0.18486 -0.265374 0)
(-0.145118 -0.235912 0)
(-0.10627 -0.19758 0)
(-0.0710061 -0.153515 0)
(-0.0416827 -0.107929 0)
(-0.0198044 -0.06538 0)
(-0.00601906 -0.030045 0)
(-0.000597594 -0.00543735 0)
(-7.2177e-05 -9.56837e-05 0)
(-0.000541845 0.000680861 0)
(-0.00158905 0.00201808 0)
(-0.00308876 0.00361995 0)
(-0.00495475 0.00527963 0)
(-0.00711776 0.00685816 0)
(-0.00950987 0.00827337 0)
(-0.0120708 0.00948857 0)
(-0.0147515 0.0105013 0)
(-0.017515 0.0113334 0)
(-0.0203359 0.0120236 0)
(-0.0231999 0.0126209 0)
(-0.0261028 0.0131804 0)
(-0.0290499 0.0137609 0)
(-0.032055 0.0144225 0)
(-0.0351403 0.0152263 0)
(-0.0383355 0.0162343 0)
(-0.0416784 0.0175088 0)
(-0.0452139 0.0191132 0)
(-0.0489947 0.0211118 0)
(-0.0530805 0.0235692 0)
(-0.0575376 0.0265505 0)
(-0.0624385 0.0301197 0)
(-0.0678607 0.0343391 0)
(-0.073885 0.039267 0)
(-0.0805934 0.0449553 0)
(-0.0880664 0.0514467 0)
(-0.0963792 0.0587703 0)
(-0.105597 0.0669367 0)
(-0.115771 0.0759319 0)
(-0.12693 0.0857103 0)
(-0.139075 0.0961872 0)
(-0.152175 0.107232 0)
(-0.16616 0.118662 0)
(-0.180915 0.130241 0)
(-0.196286 0.141682 0)
(-0.212078 0.152654 0)
(-0.228064 0.162798 0)
(-0.243997 0.171746 0)
(-0.259623 0.179147 0)
(-0.274697 0.184688 0)
(-0.288998 0.188116 0)
(-0.302336 0.189253 0)
(-0.314566 0.188002 0)
(-0.325586 0.184344 0)
(-0.335335 0.178334 0)
(-0.343796 0.170081 0)
(-0.350981 0.159738 0)
(-0.356935 0.147484 0)
(-0.361724 0.133512 0)
(-0.365436 0.118013 0)
(-0.368171 0.101169 0)
(-0.370046 0.0831443 0)
(-0.371181 0.0640758 0)
(-0.371703 0.0440715 0)
(-0.371736 0.0232065 0)
(-0.371397 0.00152171 0)
(-0.370783 -0.0209735 0)
(-0.369966 -0.0442962 0)
(-0.368982 -0.06848 0)
(-0.367808 -0.0935589 0)
(-0.366354 -0.119544 0)
(-0.364435 -0.146388 0)
(-0.36175 -0.173942 0)
(-0.357869 -0.201897 0)
(-0.352212 -0.229713 0)
(-0.344057 -0.256545 0)
(-0.332566 -0.281172 0)
(-0.31686 -0.301964 0)
(-0.296135 -0.316902 0)
(-0.26985 -0.323714 0)
(-0.237964 -0.320164 0)
(-0.20118 -0.304523 0)
(-0.161124 -0.276174 0)
(-0.120328 -0.236195 0)
(-0.0819145 -0.187643 0)
(-0.0489431 -0.135265 0)
(-0.0236695 -0.0846051 0)
(-0.00736427 -0.0409373 0)
(-0.000784279 -0.00866061 0)
(-9.53962e-05 0.000212014 0)
(-0.000683869 0.00156982 0)
(-0.00196741 0.00342353 0)
(-0.00377607 0.00546195 0)
(-0.00599579 0.00747456 0)
(-0.00853907 0.00932638 0)
(-0.0113234 0.0109443 0)
(-0.0142778 0.0123033 0)
(-0.017346 0.013414 0)
(-0.0204866 0.0143112 0)
(-0.0236717 0.0150458 0)
(-0.0268863 0.0156781 0)
(-0.0301263 0.0162736 0)
(-0.0333976 0.0169 0)
(-0.0367153 0.0176262 0)
(-0.0401027 0.0185215 0)
(-0.0435909 0.0196553 0)
(-0.0472183 0.0210977 0)
(-0.0510308 0.0229193 0)
(-0.055081 0.0251915 0)
(-0.059428 0.0279856 0)
(-0.0641368 0.0313724 0)
(-0.069277 0.035421 0)
(-0.074922 0.040197 0)
(-0.0811464 0.04576 0)
(-0.0880241 0.0521606 0)
(-0.0956246 0.0594366 0)
(-0.10401 0.0676081 0)
(-0.113228 0.0766715 0)
(-0.12331 0.0865931 0)
(-0.134264 0.0973013 0)
(-0.146067 0.10868 0)
(-0.158662 0.120561 0)
(-0.171955 0.132723 0)
(-0.185815 0.144888 0)
(-0.20007 0.156733 0)
(-0.214522 0.167894 0)
(-0.228948 0.177992 0)
(-0.243118 0.186654 0)
(-0.256804 0.193534 0)
(-0.269797 0.198339 0)
(-0.281917 0.200849 0)
(-0.293018 0.200923 0)
(-0.302998 0.198508 0)
(-0.311793 0.193626 0)
(-0.319376 0.186368 0)
(-0.325756 0.176879 0)
(-0.330968 0.16534 0)
(-0.335075 0.151955 0)
(-0.338157 0.136936 0)
(-0.340315 0.120492 0)
(-0.341662 0.102819 0)
(-0.342324 0.08409 0)
(-0.342435 0.0644493 0)
(-0.342132 0.0440067 0)
(-0.341554 0.0228331 0)
(-0.340834 0.000959231 0)
(-0.34009 -0.0216242 0)
(-0.339423 -0.0449642 0)
(-0.338901 -0.0691375 0)
(-0.338547 -0.0942377 0)
(-0.338322 -0.120355 0)
(-0.3381 -0.147547 0)
(-0.337645 -0.175792 0)
(-0.33658 -0.204931 0)
(-0.334366 -0.234588 0)
(-0.330277 -0.264078 0)
(-0.323414 -0.292304 0)
(-0.312738 -0.317671 0)
(-0.297175 -0.338045 0)
(-0.275787 -0.35082 0)
(-0.248034 -0.353148 0)
(-0.21409 -0.342419 0)
(-0.175151 -0.316975 0)
(-0.133597 -0.276965 0)
(-0.0928078 -0.224989 0)
(-0.0565141 -0.166094 0)
(-0.0278392 -0.106842 0)
(-0.00886333 -0.0538281 0)
(-0.00100446 -0.0125934 0)
(-0.000120315 0.000595499 0)
(-0.00083498 0.00265218 0)
(-0.00236791 0.00510842 0)
(-0.00450038 0.00764195 0)
(-0.00708813 0.0100434 0)
(-0.0100241 0.0121868 0)
(-0.0132104 0.0140125 0)
(-0.0165647 0.0155115 0)
(-0.0200234 0.0167103 0)
(-0.0235406 0.0176594 0)
(-0.0270862 0.0184235 0)
(-0.0306441 0.0190756 0)
(-0.0342102 0.0196919 0)
(-0.037791 0.0203501 0)
(-0.0414021 0.0211277 0)
(-0.0450675 0.022102 0)
(-0.0488187 0.0233499 0)
(-0.0526942 0.0249488 0)
(-0.0567392 0.0269761 0)
(-0.0610052 0.0295092 0)
(-0.0655489 0.0326254 0)
(-0.070432 0.0364001 0)
(-0.0757194 0.0409058 0)
(-0.0814778 0.0462097 0)
(-0.0877735 0.0523707 0)
(-0.0946695 0.0594356 0)
(-0.102223 0.0674348 0)
(-0.110479 0.0763765 0)
(-0.11947 0.0862405 0)
(-0.129205 0.0969709 0)
(-0.139673 0.108469 0)
(-0.150828 0.120586 0)
(-0.162595 0.13312 0)
(-0.174864 0.145812 0)
(-0.187491 0.15835 0)
(-0.200303 0.17038 0)
(-0.213106 0.181519 0)