#Probe 0 (5.5 -0.5 0)
# Probe 1 (5.5 0.5 0)
#       Probe             0             1
#        Time
        0.005             (0.993294 0.00433513 8.78533e-20)             (0.993294 -0.00433513 -9.49253e-20)
         0.01             (0.993956 0.000892461 -7.89647e-21)             (0.993956 -0.000892461 8.78274e-21)
        0.015             (0.993721 0.00157496 3.11803e-21)             (0.993721 -0.00157496 -3.41235e-21)
         0.02             (0.993543 0.00154881 1.84559e-21)             (0.993543 -0.00154881 -1.98376e-21)
        0.025             (0.993405 0.00157628 1.48607e-21)             (0.993405 -0.00157628 -1.60129e-21)
         0.03             (0.99329 0.00160201 1.22739e-21)             (0.99329 -0.00160201 -1.32272e-21)
        0.035             (0.993192 0.00162421 1.03371e-21)             (0.993192 -0.00162421 -1.11397e-21)
         0.04             (0.993108 0.00164972 8.82268e-22)             (0.993108 -0.00164972 -9.51329e-22)
        0.045             (0.993033 0.00167065 7.6232e-22)             (0.993033 -0.00167065 -8.21926e-22)
         0.05             (0.992966 0.00168823 6.6465e-22)             (0.992966 -0.00168823 -7.16544e-22)
        0.055             (0.992906 0.00170293 5.84632e-22)             (0.992906 -0.00170293 -6.30193e-22)
         0.06             (0.992852 0.00171555 5.17893e-22)             (0.992852 -0.00171555 -5.58198e-22)
        0.065             (0.992802 0.00172637 4.61579e-22)             (0.992802 -0.00172637 -4.97411e-22)
         0.07             (0.992756 0.00173581 4.13859e-22)             (0.992756 -0.0017358 -4.45913e-22)
        0.075             (0.992712 0.00174429 3.73075e-22)             (0.992712 -0.00174429 -4.01922e-22)
         0.08             (0.992672 0.00175213 3.37965e-22)             (0.992672 -0.00175213 -3.64065e-22)
        0.085             (0.992634 0.00175945 3.07549e-22)             (0.992634 -0.00175944 -3.31271e-22)
         0.09             (0.992598 0.00176637 2.81089e-22)             (0.992598 -0.00176637 -3.02749e-22)
        0.095             (0.992563 0.00177299 2.58001e-22)             (0.992563 -0.00177299 -2.77863e-22)
          0.1             (0.99253 0.00177936 2.37749e-22)             (0.99253 -0.00177936 -2.56034e-22)
        0.105             (0.992499 0.00178562 2.19867e-22)             (0.992499 -0.00178562 -2.36774e-22)
         0.11             (0.992468 0.00179161 2.03977e-22)             (0.992468 -0.00179161 -2.19639e-22)
        0.115             (0.992439 0.0017974 1.89925e-22)             (0.992439 -0.0017974 -2.04493e-22)
         0.12             (0.99241 0.00180302 1.77329e-22)             (0.99241 -0.00180302 -1.90919e-22)
        0.125             (0.992382 0.00180847 1.6619e-22)             (0.992382 -0.00180847 -1.78913e-22)
         0.13             (0.992355 0.00181382 1.56228e-22)             (0.992355 -0.00181382 -1.68179e-22)
        0.135             (0.992329 0.00181909 1.47273e-22)             (0.992329 -0.00181909 -1.58533e-22)
         0.14             (0.992303 0.0018243 1.39205e-22)             (0.992303 -0.0018243 -1.49844e-22)
        0.145             (0.992277 0.00182947 1.31907e-22)             (0.992277 -0.00182946 -1.41986e-22)
         0.15             (0.992253 0.00183459 1.25314e-22)             (0.992253 -0.00183458 -1.34885e-22)
        0.155             (0.992228 0.00183967 1.19324e-22)             (0.992228 -0.00183966 -1.28433e-22)
         0.16             (0.992204 0.00184472 1.1386e-22)             (0.992204 -0.00184471 -1.22548e-22)
        0.165             (0.99218 0.00184974 1.08865e-22)             (0.99218 -0.00184973 -1.17167e-22)
         0.17             (0.992157 0.00185473 1.04285e-22)             (0.992157 -0.00185473 -1.12235e-22)
        0.175             (0.992134 0.00185971 1.00078e-22)             (0.992134 -0.00185971 -1.07704e-22)
         0.18             (0.992111 0.00186467 9.6201e-23)             (0.992111 -0.00186466 -1.03528e-22)
        0.185             (0.992088 0.00186962 9.26244e-23)             (0.992088 -0.00186961 -9.96761e-23)
         0.19             (0.992065 0.00187457 8.93146e-23)             (0.992065 -0.00187456 -9.61126e-23)
        0.195             (0.992043 0.00187953 8.62443e-23)             (0.992043 -0.00187953 -9.28078e-23)
          0.2             (0.992021 0.00188451 8.33849e-23)             (0.992021 -0.00188451 -8.97311e-23)
        0.205             (0.991999 0.00188943 8.06806e-23)             (0.991999 -0.00188942 -8.68112e-23)
         0.21             (0.991977 0.00189428 7.81407e-23)             (0.991977 -0.00189427 -8.4068e-23)
        0.215             (0.991955 0.00189912 7.57927e-23)             (0.991955 -0.00189911 -8.15396e-23)
         0.22             (0.991934 0.00190396 7.35918e-23)             (0.991934 -0.00190396 -7.91689e-23)
        0.225             (0.991912 0.00190879 7.15231e-23)             (0.991912 -0.00190879 -7.69396e-23)
         0.23             (0.991891 0.00191366 6.95373e-23)             (0.991891 -0.00191365 -7.48055e-23)
        0.235             (0.991869 0.00191857 6.7659e-23)             (0.991869 -0.00191856 -7.27875e-23)
         0.24             (0.991848 0.00192347 6.58491e-23)             (0.991848 -0.00192346 -7.08377e-23)
        0.245             (0.991827 0.00192836 6.41848e-23)             (0.991827 -0.00192835 -6.90447e-23)
         0.25             (0.991806 0.00193325 6.2599e-23)             (0.991806 -0.00193324 -6.73362e-23)
        0.255             (0.991785 0.00193814 6.10871e-23)             (0.991785 -0.00193813 -6.57072e-23)
         0.26             (0.991764 0.00194303 5.96504e-23)             (0.991764 -0.00194302 -6.41595e-23)
        0.265             (0.991743 0.00194792 5.82788e-23)             (0.991743 -0.00194791 -6.26821e-23)
         0.27             (0.991722 0.00195281 5.69633e-23)             (0.991722 -0.0019528 -6.1265e-23)
        0.275             (0.991702 0.0019577 5.5705e-23)             (0.991702 -0.00195769 -5.99091e-23)
         0.28             (0.991681 0.00196259 5.44941e-23)             (0.991681 -0.00196258 -5.86049e-23)
        0.285             (0.99166 0.00196748 5.3335e-23)             (0.99166 -0.00196747 -5.73563e-23)
         0.29             (0.99164 0.00197237 5.22233e-23)             (0.99164 -0.00197236 -5.61589e-23)
        0.295             (0.991619 0.00197727 5.11536e-23)             (0.991619 -0.00197726 -5.50068e-23)
          0.3             (0.991598 0.00198219 5.01286e-23)             (0.991598 -0.00198218 -5.39046e-23)
        0.305             (0.991578 0.00198711 4.9149e-23)             (0.991578 -0.00198709 -5.28485e-23)
         0.31             (0.991557 0.00199198 4.81773e-23)             (0.991557 -0.00199197 -5.17964e-23)
        0.315             (0.991537 0.00199686 4.72509e-23)             (0.991537 -0.00199685 -5.07983e-23)
         0.32             (0.991516 0.00200175 4.6359e-23)             (0.991516 -0.00200173 -4.98374e-23)
        0.325             (0.991496 0.00200664 4.55079e-23)             (0.991496 -0.00200662 -4.89206e-23)
         0.33             (0.991476 0.00201153 4.46799e-23)             (0.991476 -0.00201152 -4.80286e-23)
        0.335             (0.991455 0.00201643 4.38761e-23)             (0.991455 -0.00201642 -4.71625e-23)
         0.34             (0.991435 0.00202133 4.30994e-23)             (0.991435 -0.00202132 -4.63256e-23)
        0.345             (0.991414 0.00202624 4.23499e-23)             (0.991414 -0.00202623 -4.55179e-23)
         0.35             (0.991394 0.00203115 4.16217e-23)             (0.991394 -0.00203113 -4.47328e-23)
        0.355             (0.991374 0.00203606 4.09269e-23)             (0.991374 -0.00203605 -4.39842e-23)
         0.36             (0.991354 0.00204098 4.0258e-23)             (0.991354 -0.00204096 -4.32629e-23)
        0.365             (0.991333 0.00204593 3.95758e-23)             (0.991333 -0.00204591 -4.25308e-23)
         0.37             (0.991313 0.00205088 3.89394e-23)             (0.991313 -0.00205086 -4.1845e-23)
        0.375             (0.991293 0.00205584 3.83245e-23)             (0.991293 -0.00205582 -4.11822e-23)
         0.38             (0.991272 0.0020608 3.77294e-23)             (0.991272 -0.00206078 -4.05408e-23)
        0.385             (0.991252 0.00206577 3.71525e-23)             (0.991252 -0.00206575 -3.9919e-23)
         0.39             (0.991232 0.00207074 3.65947e-23)             (0.991232 -0.00207072 -3.93179e-23)
        0.395             (0.991211 0.00207572 3.60536e-23)             (0.991211 -0.0020757 -3.87348e-23)
          0.4             (0.991191 0.00208073 3.55383e-23)             (0.991191 -0.00208071 -3.81811e-23)
        0.405             (0.991171 0.00208572 3.50375e-23)             (0.991171 -0.0020857 -3.76388e-23)
         0.41             (0.99115 0.00209071 3.45521e-23)             (0.99115 -0.00209069 -3.71158e-23)
        0.415             (0.99113 0.00209572 3.40792e-23)             (0.99113 -0.0020957 -3.6606e-23)
         0.42             (0.99111 0.00210074 3.36217e-23)             (0.99111 -0.00210072 -3.6113e-23)
        0.425             (0.991089 0.00210576 3.31789e-23)             (0.991089 -0.00210574 -3.56358e-23)
         0.43             (0.991069 0.00211079 3.27505e-23)             (0.991069 -0.00211077 -3.51742e-23)
        0.435             (0.991049 0.00211584 3.2336e-23)             (0.991049 -0.00211581 -3.47274e-23)
         0.44             (0.991028 0.00212089 3.19347e-23)             (0.991028 -0.00212087 -3.42949e-23)
        0.445             (0.991008 0.00212595 3.15462e-23)             (0.991008 -0.00212593 -3.38762e-23)
         0.45             (0.990987 0.00213102 3.117e-23)             (0.990987 -0.002131 -3.34708e-23)
        0.455             (0.990967 0.0021361 3.08058e-23)             (0.990967 -0.00213608 -3.30782e-23)
         0.46             (0.990947 0.0021412 3.04523e-23)             (0.990947 -0.00214117 -3.26972e-23)
        0.465             (0.990926 0.0021463 3.01098e-23)             (0.990926 -0.00214627 -3.23281e-23)
         0.47             (0.990906 0.00215141 2.97797e-23)             (0.990906 -0.00215139 -3.19724e-23)
        0.475             (0.990885 0.00215654 2.946e-23)             (0.990885 -0.00215651 -3.16278e-23)
         0.48             (0.990865 0.00216167 2.915e-23)             (0.990865 -0.00216165 -3.12937e-23)
        0.485             (0.990844 0.00216681 2.88549e-23)             (0.990844 -0.00216679 -3.09749e-23)
         0.49             (0.990823 0.00217197 2.85529e-23)             (0.990823 -0.00217194 -3.06497e-23)
        0.495             (0.990803 0.00217714 2.82723e-23)             (0.990803 -0.00217711 -3.03478e-23)
          0.5             (0.990782 0.00218232 2.79977e-23)             (0.990782 -0.00218229 -3.00518e-23)
        0.505             (0.990762 0.00218751 2.77312e-23)             (0.990762 -0.00218749 -2.97644e-23)
         0.51             (0.990741 0.00219272 2.7472e-23)             (0.990741 -0.00219269 -2.9485e-23)
        0.515             (0.99072 0.00219793 2.72202e-23)             (0.99072 -0.0021979 -2.92133e-23)
         0.52             (0.9907 0.00220316 2.69761e-23)             (0.9907 -0.00220313 -2.89504e-23)
        0.525             (0.990679 0.0022084 2.67392e-23)             (0.990679 -0.00220837 -2.8695e-23)
         0.53             (0.990658 0.00221365 2.65178e-23)             (0.990658 -0.00221362 -2.84563e-23)
        0.535             (0.990637 0.00221891 2.63134e-23)             (0.990637 -0.00221888 -2.82358e-23)
         0.54             (0.990616 0.00222419 2.60711e-23)             (0.990616 -0.00222416 -2.79745e-23)
        0.545             (0.990596 0.00222947 2.5879e-23)             (0.990596 -0.00222944 -2.77675e-23)
         0.55             (0.990575 0.00223477 2.56693e-23)             (0.990575 -0.00223474 -2.75413e-23)
        0.555             (0.990554 0.00224008 2.54697e-23)             (0.990554 -0.00224005 -2.73262e-23)
         0.56             (0.990533 0.00224541 2.52756e-23)             (0.990533 -0.00224537 -2.71164e-23)
        0.565             (0.990512 0.00225074 2.50855e-23)             (0.990512 -0.00225071 -2.69115e-23)
         0.57             (0.990491 0.00225608 2.48962e-23)             (0.990491 -0.00225605 -2.67068e-23)
        0.575             (0.99047 0.00226144 2.47217e-23)             (0.99047 -0.00226141 -2.65191e-23)
         0.58             (0.990449 0.00226682 2.4546e-23)             (0.990449 -0.00226678 -2.63298e-23)
        0.585             (0.990428 0.0022722 2.4378e-23)             (0.990428 -0.00227217 -2.61487e-23)
         0.59             (0.990406 0.0022776 2.42113e-23)             (0.990406 -0.00227757 -2.59688e-23)
        0.595             (0.990385 0.00228302 2.40505e-23)             (0.990385 -0.00228298 -2.57954e-23)
          0.6             (0.990364 0.00228845 2.38899e-23)             (0.990364 -0.00228841 -2.56226e-23)
        0.605             (0.990343 0.00229388 2.37346e-23)             (0.990343 -0.00229385 -2.54545e-23)
         0.61             (0.990321 0.00229934 2.35918e-23)             (0.990321 -0.0022993 -2.53004e-23)
        0.615             (0.9903 0.0023048 2.34489e-23)             (0.9903 -0.00230476 -2.51462e-23)
         0.62             (0.990279 0.00231028 2.33012e-23)             (0.990279 -0.00231024 -2.49869e-23)
        0.625             (0.990257 0.00231577 2.31568e-23)             (0.990257 -0.00231573 -2.4831e-23)
         0.63             (0.990236 0.00232127 2.30154e-23)             (0.990236 -0.00232123 -2.46783e-23)
        0.635             (0.990215 0.00232679 2.28773e-23)             (0.990215 -0.00232675 -2.45292e-23)
         0.64             (0.990193 0.00233231 2.27406e-23)             (0.990193 -0.00233227 -2.43814e-23)
        0.645             (0.990171 0.00233784 2.26023e-23)             (0.990171 -0.0023378 -2.4231e-23)
         0.65             (0.99015 0.0023434 2.24791e-23)             (0.99015 -0.00234336 -2.40997e-23)
        0.655             (0.990128 0.00234897 2.23496e-23)             (0.990128 -0.00234893 -2.39599e-23)
         0.66             (0.990107 0.00235456 2.22235e-23)             (0.990107 -0.00235452 -2.38238e-23)
        0.665             (0.990085 0.00236016 2.20981e-23)             (0.990085 -0.00236011 -2.36885e-23)
         0.67             (0.990063 0.00236577 2.19741e-23)             (0.990063 -0.00236573 -2.35547e-23)
        0.675             (0.990041 0.00237139 2.18515e-23)             (0.990041 -0.00237135 -2.34223e-23)
         0.68             (0.99002 0.00237703 2.17305e-23)             (0.99002 -0.00237699 -2.32914e-23)
        0.685             (0.989998 0.00238268 2.16109e-23)             (0.989998 -0.00238264 -2.31623e-23)
         0.69             (0.989976 0.00238834 2.14919e-23)             (0.989976 -0.0023883 -2.30339e-23)
        0.695             (0.989954 0.00239402 2.13742e-23)             (0.989954 -0.00239398 -2.29066e-23)
          0.7             (0.989932 0.00239971 2.12551e-23)             (0.989932 -0.00239967 -2.27782e-23)
        0.705             (0.98991 0.00240542 2.11361e-23)             (0.98991 -0.00240537 -2.26493e-23)
         0.71             (0.989888 0.00241112 2.10203e-23)             (0.989888 -0.00241108 -2.25225e-23)
        0.715             (0.989866 0.00241685 2.09109e-23)             (0.989866 -0.00241681 -2.24063e-23)
         0.72             (0.989844 0.0024226 2.0796e-23)             (0.989844 -0.00242255 -2.22822e-23)
        0.725             (0.989822 0.00242836 2.06962e-23)             (0.989822 -0.00242831 -2.21745e-23)
         0.73             (0.989799 0.00243413 2.05824e-23)             (0.989799 -0.00243409 -2.20515e-23)
        0.735             (0.989777 0.00243992 2.04707e-23)             (0.989777 -0.00243987 -2.19309e-23)
         0.74             (0.989755 0.00244572 2.03575e-23)             (0.989755 -0.00244567 -2.18085e-23)
        0.745             (0.989733 0.00245153 2.02435e-23)             (0.989733 -0.00245149 -2.16853e-23)
         0.75             (0.98971 0.00245736 2.01244e-23)             (0.98971 -0.00245731 -2.15565e-23)
        0.755             (0.989688 0.0024632 2.00188e-23)             (0.989688 -0.00246315 -2.14425e-23)
         0.76             (0.989665 0.00246905 1.9917e-23)             (0.989665 -0.00246901 -2.13324e-23)
        0.765             (0.989643 0.00247492 1.9803e-23)             (0.989643 -0.00247487 -2.12091e-23)
         0.77             (0.98962 0.00248079 1.96869e-23)             (0.98962 -0.00248074 -2.10828e-23)
        0.775             (0.989598 0.00248669 1.95807e-23)             (0.989598 -0.00248664 -2.09693e-23)
         0.78             (0.989575 0.0024926 1.94666e-23)             (0.989575 -0.00249255 -2.08461e-23)
        0.785             (0.989553 0.00249853 1.9351e-23)             (0.989553 -0.00249848 -2.07212e-23)
         0.79             (0.98953 0.00250447 1.9234e-23)             (0.98953 -0.00250442 -2.0595e-23)
        0.795             (0.989507 0.00251043 1.91072e-23)             (0.989507 -0.00251037 -2.04592e-23)
          0.8             (0.989484 0.00251639 1.89976e-23)             (0.989484 -0.00251634 -2.03385e-23)
        0.805             (0.989462 0.00252237 1.88982e-23)             (0.989462 -0.00252231 -2.02313e-23)
         0.81             (0.989439 0.00252836 1.87977e-23)             (0.989439 -0.0025283 -2.01227e-23)
        0.815             (0.989416 0.00253436 1.86784e-23)             (0.989416 -0.00253431 -1.99937e-23)
         0.82             (0.989393 0.00254037 1.8556e-23)             (0.989393 -0.00254032 -1.98607e-23)
        0.825             (0.98937 0.00254641 1.8442e-23)             (0.98937 -0.00254635 -1.97385e-23)
         0.83             (0.989347 0.00255246 1.83215e-23)             (0.989347 -0.0025524 -1.96084e-23)
        0.835             (0.989324 0.00255852 1.82011e-23)             (0.989324 -0.00255846 -1.94783e-23)
         0.84             (0.989301 0.00256459 1.80788e-23)             (0.989301 -0.00256454 -1.93462e-23)
        0.845             (0.989278 0.00257068 1.79568e-23)             (0.989278 -0.00257063 -1.92143e-23)
         0.85             (0.989254 0.00257679 1.78324e-23)             (0.989254 -0.00257673 -1.90799e-23)
        0.855             (0.989231 0.0025829 1.77029e-23)             (0.989231 -0.00258284 -1.89398e-23)
         0.86             (0.989208 0.00258903 1.75758e-23)             (0.989208 -0.00258897 -1.88025e-23)
        0.865             (0.989185 0.00259517 1.74399e-23)             (0.989185 -0.00259511 -1.86549e-23)
         0.87             (0.989161 0.00260133 1.73263e-23)             (0.989161 -0.00260127 -1.85329e-23)
        0.875             (0.989138 0.0026075 1.71957e-23)             (0.989138 -0.00260744 -1.83921e-23)
         0.88             (0.989114 0.00261369 1.70571e-23)             (0.989114 -0.00261363 -1.82427e-23)
        0.885             (0.989091 0.00261989 1.69331e-23)             (0.989091 -0.00261983 -1.81078e-23)
         0.89             (0.989067 0.0026261 1.67968e-23)             (0.989067 -0.00262604 -1.79605e-23)
        0.895             (0.989044 0.00263233 1.66569e-23)             (0.989044 -0.00263227 -1.78094e-23)
          0.9             (0.98902 0.00263857 1.65143e-23)             (0.98902 -0.0026385 -1.76553e-23)
        0.905             (0.988997 0.00264481 1.63745e-23)             (0.988997 -0.00264475 -1.75036e-23)
         0.91             (0.988973 0.00265109 1.6266e-23)             (0.988973 -0.00265102 -1.73873e-23)
        0.915             (0.988949 0.00265737 1.61302e-23)             (0.988949 -0.00265731 -1.72403e-23)
         0.92             (0.988925 0.00266367 1.59856e-23)             (0.988925 -0.0026636 -1.7084e-23)
        0.925             (0.988902 0.00266997 1.58392e-23)             (0.988902 -0.00266991 -1.69258e-23)
         0.93             (0.988878 0.0026763 1.56928e-23)             (0.988878 -0.00267623 -1.67677e-23)
        0.935             (0.988854 0.00268263 1.55436e-23)             (0.988854 -0.00268257 -1.66066e-23)
         0.94             (0.98883 0.00268898 1.53935e-23)             (0.98883 -0.00268892 -1.64437e-23)
        0.945             (0.988806 0.00269535 1.52438e-23)             (0.988806 -0.00269528 -1.62826e-23)
         0.95             (0.988782 0.00270173 1.50902e-23)             (0.988782 -0.00270166 -1.61169e-23)
        0.955             (0.988758 0.00270812 1.49307e-23)             (0.988758 -0.00270806 -1.59447e-23)
         0.96             (0.988734 0.00271453 1.47839e-23)             (0.988734 -0.00271446 -1.57854e-23)
        0.965             (0.98871 0.00272095 1.46253e-23)             (0.98871 -0.00272088 -1.56137e-23)
         0.97             (0.988686 0.00272738 1.44681e-23)             (0.988686 -0.00272731 -1.54442e-23)
        0.975             (0.988661 0.00273382 1.43064e-23)             (0.988661 -0.00273376 -1.52696e-23)
         0.98             (0.988637 0.00274028 1.41428e-23)             (0.988637 -0.00274022 -1.50929e-23)
        0.985             (0.988613 0.00274676 1.39779e-23)             (0.988613 -0.00274669 -1.49149e-23)
         0.99             (0.988589 0.00275324 1.3811e-23)             (0.988589 -0.00275317 -1.4734e-23)
        0.995             (0.988564 0.00275975 1.3644e-23)             (0.988564 -0.00275968 -1.4554e-23)
            1             (0.98854 0.00276626 1.34697e-23)             (0.98854 -0.00276619 -1.43658e-23)
        1.005             (0.988515 0.00277279 1.33029e-23)             (0.988515 -0.00277272 -1.41863e-23)
         1.01             (0.988491 0.00277933 1.31303e-23)             (0.988491 -0.00277926 -1.39984e-23)
        1.015             (0.988466 0.00278589 1.29515e-23)             (0.988466 -0.00278582 -1.38064e-23)
         1.02             (0.988442 0.00279247 1.27689e-23)             (0.988442 -0.00279239 -1.36098e-23)
        1.025             (0.988417 0.00279905 1.25974e-23)             (0.988417 -0.00279898 -1.34229e-23)
         1.03             (0.988392 0.00280564 1.2418e-23)             (0.988392 -0.00280557 -1.32286e-23)
        1.035             (0.988368 0.00281225 1.22337e-23)             (0.988368 -0.00281218 -1.30302e-23)
         1.04             (0.988343 0.00281888 1.20466e-23)             (0.988343 -0.0028188 -1.28281e-23)
        1.045             (0.988318 0.00282551 1.18553e-23)             (0.988318 -0.00282544 -1.26215e-23)
         1.05             (0.988293 0.00283216 1.16638e-23)             (0.988293 -0.00283209 -1.24146e-23)
        1.055             (0.988269 0.00283883 1.14853e-23)             (0.988269 -0.00283875 -1.22219e-23)
         1.06             (0.988244 0.00284551 1.13028e-23)             (0.988244 -0.00284543 -1.20247e-23)
        1.065             (0.988219 0.0028522 1.11144e-23)             (0.988219 -0.00285212 -1.18213e-23)
         1.07             (0.988194 0.00285891 1.09221e-23)             (0.988194 -0.00285883 -1.16136e-23)
        1.075             (0.988169 0.00286563 1.07206e-23)             (0.988169 -0.00286555 -1.1396e-23)
         1.08             (0.988144 0.00287237 1.0513e-23)             (0.988144 -0.00287229 -1.11721e-23)
        1.085             (0.988119 0.00287911 1.03169e-23)             (0.988119 -0.00287904 -1.09594e-23)
         1.09             (0.988094 0.00288587 1.01122e-23)             (0.988093 -0.00288579 -1.07386e-23)
        1.095             (0.988068 0.00289265 9.90453e-24)             (0.988068 -0.00289257 -1.05143e-23)
          1.1             (0.988043 0.00289943 9.69373e-24)             (0.988043 -0.00289935 -1.02866e-23)
        1.105             (0.988018 0.00290624 9.47941e-24)             (0.988018 -0.00290616 -1.00554e-23)
         1.11             (0.987993 0.00291305 9.26243e-24)             (0.987993 -0.00291297 -9.82104e-24)
        1.115             (0.987967 0.00291988 8.97583e-24)             (0.987967 -0.00291979 -9.51101e-24)
         1.12             (0.987942 0.00292671 8.76052e-24)             (0.987942 -0.00292663 -9.27861e-24)
        1.125             (0.987917 0.00293356 8.538e-24)             (0.987917 -0.00293348 -9.03839e-24)
         1.13             (0.987891 0.00294043 8.31362e-24)             (0.987891 -0.00294034 -8.79637e-24)
        1.135             (0.987866 0.00294731 8.08782e-24)             (0.987866 -0.00294722 -8.55231e-24)
         1.14             (0.98784 0.0029542 7.86734e-24)             (0.98784 -0.00295411 -8.31382e-24)
        1.145             (0.987815 0.0029611 7.63868e-24)             (0.987815 -0.00296102 -8.06707e-24)
         1.15             (0.987789 0.00296802 7.40698e-24)             (0.987789 -0.00296794 -7.8169e-24)
        1.155             (0.987763 0.00297495 7.16905e-24)             (0.987763 -0.00297487 -7.55995e-24)
         1.16             (0.987738 0.0029819 6.94184e-24)             (0.987738 -0.00298181 -7.3146e-24)
        1.165             (0.987712 0.00298886 6.70441e-24)             (0.987712 -0.00298877 -7.05826e-24)
         1.17             (0.987686 0.00299583 6.46367e-24)             (0.987686 -0.00299574 -6.79831e-24)
        1.175             (0.987661 0.00300282 6.21973e-24)             (0.987661 -0.00300273 -6.53503e-24)
         1.18             (0.987635 0.00300982 5.96996e-24)             (0.987635 -0.00300973 -6.26517e-24)
        1.185             (0.987609 0.00301683 5.72965e-24)             (0.987609 -0.00301674 -6.00514e-24)
         1.19             (0.987583 0.00302386 5.48095e-24)             (0.987583 -0.00302377 -5.73711e-24)
        1.195             (0.987557 0.0030309 5.22765e-24)             (0.987557 -0.00303081 -5.46433e-24)
          1.2             (0.987531 0.00303795 4.97477e-24)             (0.987531 -0.00303786 -5.1897e-24)
        1.205             (0.987505 0.00304501 4.71777e-24)             (0.987505 -0.00304492 -4.91265e-24)
         1.21             (0.987479 0.00305209 4.45775e-24)             (0.987479 -0.003052 -4.63193e-24)
        1.215             (0.987453 0.00305918 4.19637e-24)             (0.987453 -0.00305909 -4.34984e-24)
         1.22             (0.987427 0.00306629 3.92986e-24)             (0.987427 -0.00306619 -4.06313e-24)
        1.225             (0.987401 0.00307341 3.6675e-24)             (0.987401 -0.00307331 -3.77684e-24)
         1.23             (0.987375 0.00308054 3.39975e-24)             (0.987375 -0.00308044 -3.48918e-24)
        1.235             (0.987348 0.00308768 3.12686e-24)             (0.987348 -0.00308759 -3.19487e-24)
         1.24             (0.987322 0.00309484 2.85307e-24)             (0.987322 -0.00309474 -2.89919e-24)
        1.245             (0.987296 0.00310201 2.57613e-24)             (0.987296 -0.00310191 -2.60015e-24)
         1.25             (0.98727 0.00310919 2.2961e-24)             (0.98727 -0.00310909 -2.29789e-24)
        1.255             (0.987243 0.00311639 2.01392e-24)             (0.987243 -0.00311629 -1.99409e-24)
         1.26             (0.987217 0.0031236 1.73799e-24)             (0.987217 -0.0031235 -1.69333e-24)
        1.265             (0.98719 0.00313082 1.45334e-24)             (0.98719 -0.00313072 -1.38783e-24)
         1.27             (0.987164 0.00313805 1.17006e-24)             (0.987164 -0.00313795 -1.08214e-24)
        1.275             (0.987137 0.00314531 8.79877e-25)             (0.987137 -0.00314521 -7.6864e-25)
         1.28             (0.987111 0.00315257 5.87728e-25)             (0.987111 -0.00315246 -4.52933e-25)
        1.285             (0.987084 0.00315984 2.90808e-25)             (0.987084 -0.00315974 -1.3217e-25)
         1.29             (0.987058 0.00316713 -6.96306e-27)             (0.987058 -0.00316702 1.89786e-25)
        1.295             (0.987031 0.00317443 -3.06915e-25)             (0.987031 -0.00317432 5.1307e-25)
          1.3             (0.987004 0.00318174 -6.12004e-25)             (0.987004 -0.00318163 8.42464e-25)
        1.305             (0.986978 0.00318906 -9.18373e-25)             (0.986978 -0.00318896 1.17302e-24)
         1.31             (0.986951 0.0031964 -1.22723e-24)             (0.986951 -0.0031963 1.50705e-24)
        1.315             (0.986924 0.00320375 -1.53487e-24)             (0.986924 -0.00320365 1.83928e-24)
         1.32             (0.986897 0.00321112 -1.8483e-24)             (0.986897 -0.00321101 2.17731e-24)
        1.325             (0.986871 0.00321849 -2.16592e-24)             (0.986871 -0.00321838 2.51969e-24)
         1.33             (0.986844 0.00322588 -2.48922e-24)             (0.986844 -0.00322577 2.86982e-24)
        1.335             (0.986817 0.00323329 -2.80843e-24)             (0.986817 -0.00323318 3.21389e-24)
         1.34             (0.98679 0.0032407 -3.12964e-24)             (0.98679 -0.00324059 3.56071e-24)
        1.345             (0.986763 0.00324813 -3.45017e-24)             (0.986763 -0.00324802 3.90737e-24)
         1.35             (0.986736 0.00325557 -3.7803e-24)             (0.986736 -0.00325546 4.264e-24)
        1.355             (0.986709 0.00326302 -4.10783e-24)             (0.986709 -0.00326291 4.61742e-24)
         1.36             (0.986682 0.00327049 -4.43814e-24)             (0.986682 -0.00327037 4.97389e-24)
        1.365             (0.986655 0.00327796 -4.77411e-24)             (0.986655 -0.00327785 5.33658e-24)
         1.37             (0.986628 0.00328545 -5.11511e-24)             (0.986628 -0.00328534 5.70473e-24)
        1.375             (0.9866 0.00329295 -5.46128e-24)             (0.9866 -0.00329284 6.07848e-24)
         1.38             (0.986573 0.00330047 -5.79913e-24)             (0.986573 -0.00330036 6.44322e-24)
        1.385             (0.986546 0.003308 -6.14355e-24)             (0.986546 -0.00330788 6.81505e-24)
         1.39             (0.986519 0.00331554 -6.48062e-24)             (0.986519 -0.00331542 7.17889e-24)