# Probe 0 (5.5 -0.5 0)
# Probe 1 (5.5 0.5 0)
#       Probe             0             1
#        Time
        0.005     -0.477804     -0.477804
         0.01     0.0387974     0.0387974
        0.015    -0.0094019   -0.00940192
         0.02   -0.00770817   -0.00770817
        0.025   -0.00675101   -0.00675096
         0.03    -0.0059204   -0.00592041
        0.035   -0.00522473   -0.00522475
         0.04   -0.00463462   -0.00463461
        0.045    -0.0041283    -0.0041283
         0.05   -0.00368352   -0.00368351
        0.055   -0.00329159    -0.0032916
         0.06   -0.00294499   -0.00294499
        0.065   -0.00263657   -0.00263657
         0.07   -0.00236042   -0.00236042
        0.075    -0.0021135    -0.0021135
         0.08   -0.00189134   -0.00189134
        0.085   -0.00169053   -0.00169053
         0.09   -0.00150746   -0.00150746
        0.095   -0.00134052   -0.00134052
          0.1   -0.00118946   -0.00118946
        0.105   -0.00105052   -0.00105052
         0.11  -0.000923409  -0.000923408
        0.115  -0.000807183  -0.000807182
         0.12  -0.000698502  -0.000698501
        0.125  -0.000600158  -0.000600157
         0.13  -0.000508977  -0.000508976
        0.135  -0.000423424  -0.000423423
         0.14  -0.000344138  -0.000344139
        0.145  -0.000270588  -0.000270587
         0.15  -0.000202148  -0.000202146
        0.155  -0.000138432  -0.000138431
         0.16  -7.92005e-05  -7.92008e-05
        0.165  -2.39224e-05  -2.39208e-05
         0.17   2.76399e-05   2.76415e-05
        0.175   7.57683e-05   7.57712e-05
         0.18   0.000120713   0.000120715
        0.185   0.000162555   0.000162558
         0.19   0.000201705   0.000201706
        0.195   0.000238349   0.000238352
          0.2   0.000272609   0.000272612
        0.205   0.000304681   0.000304682
         0.21   0.000334705   0.000334707
        0.215   0.000362648   0.000362649
         0.22   0.000388762   0.000388764
        0.225   0.000413358   0.000413359
         0.23   0.000436438    0.00043644
        0.235   0.000457678    0.00045768
         0.24   0.000477241   0.000477244
        0.245    0.00049607   0.000496071
         0.25   0.000515363   0.000515365
        0.255   0.000533627   0.000533629
         0.26   0.000549706   0.000549709
        0.265   0.000564813   0.000564816
         0.27   0.000579196   0.000579198
        0.275   0.000592808    0.00059281
         0.28   0.000605519   0.000605521
        0.285    0.00061772   0.000617722
         0.29     0.0006289   0.000628902
        0.295    0.00063977   0.000639772
          0.3   0.000650176   0.000650179
        0.305   0.000660104   0.000660106
         0.31   0.000669562   0.000669564
        0.315   0.000678588    0.00067859
         0.32   0.000687249   0.000687251
        0.325   0.000695366   0.000695367
         0.33   0.000703353   0.000703356
        0.335   0.000711173   0.000711173
         0.34   0.000718527   0.000718529
        0.345   0.000725578   0.000725577
         0.35   0.000732328   0.000732329
        0.355   0.000738704   0.000738705
         0.36   0.000744944   0.000744944
        0.365   0.000750817   0.000750818
         0.37   0.000756548   0.000756548
        0.375   0.000762003   0.000762005
         0.38    0.00076775   0.000767752
        0.385   0.000773553   0.000773554
         0.39    0.00077889   0.000778891
        0.395   0.000784081   0.000784078
          0.4   0.000788783   0.000788785
        0.405   0.000793487   0.000793488
         0.41   0.000798124   0.000798124
        0.415   0.000802593   0.000802594
         0.42   0.000806806   0.000806806
        0.425   0.000810952   0.000810953
         0.43   0.000814976   0.000814977
        0.435   0.000818825   0.000818827
         0.44   0.000822139   0.000822138
        0.445   0.000826496   0.000826497
         0.45   0.000830835   0.000830836
        0.455   0.000834381    0.00083439
         0.46   0.000839176   0.000839176
        0.465   0.000843402   0.000843403
         0.47   0.000847003      0.000847
        0.475   0.000850598   0.000850598
         0.48   0.000854105   0.000854112
        0.485    0.00085697   0.000856967
         0.49   0.000860296   0.000860299
        0.495   0.000863325   0.000863326
          0.5   0.000866518   0.000866519
        0.505   0.000869443   0.000869442
         0.51   0.000872519    0.00087252
        0.515   0.000875708   0.000875708
         0.52   0.000878958   0.000878961
        0.525   0.000881939   0.000881942
         0.53   0.000884924   0.000884923
        0.535   0.000887858   0.000887859
         0.54   0.000890715   0.000890716
        0.545   0.000893438   0.000893439
         0.55   0.000896269    0.00089627
        0.555   0.000899013   0.000899014
         0.56   0.000901636   0.000901639
        0.565   0.000904294   0.000904294
         0.57   0.000907325   0.000907326
        0.575   0.000910565   0.000910564
         0.58   0.000913382   0.000913384
        0.585   0.000915697   0.000915701
         0.59    0.00091848   0.000918478
        0.595   0.000920869   0.000920873
          0.6   0.000923554   0.000923553
        0.605   0.000926233   0.000926234
         0.61   0.000928575   0.000928578
        0.615   0.000931007   0.000931007
         0.62   0.000933814   0.000933815
        0.625   0.000936368   0.000936368
         0.63   0.000938783   0.000938785
        0.635   0.000941609    0.00094161
         0.64   0.000944296   0.000944298
        0.645   0.000947352   0.000947354
         0.65   0.000950531   0.000950532
        0.655   0.000953098   0.000953101
         0.66   0.000955571   0.000955571
        0.665   0.000958092   0.000958093
         0.67   0.000960736   0.000960737
        0.675     0.0009635   0.000963501
         0.68   0.000966017    0.00096602
        0.685   0.000968184   0.000968188
         0.69   0.000970597   0.000970597
        0.695    0.00097284   0.000972841
          0.7   0.000974433   0.000974434
        0.705   0.000975894   0.000975894
         0.71   0.000976384   0.000976383
        0.715   0.000982336   0.000982343
         0.72   0.000989552   0.000989551
        0.725   0.000992658    0.00099266
         0.73   0.000995341   0.000995342
        0.735   0.000998217   0.000998217
         0.74    0.00100044    0.00100045
        0.745    0.00100303    0.00100303
         0.75    0.00100553    0.00100554
        0.755    0.00100814    0.00100814
         0.76    0.00101086    0.00101086
        0.765     0.0010135     0.0010135
         0.77    0.00101651    0.00101651
        0.775    0.00101871    0.00101871
         0.78    0.00102171    0.00102171
        0.785    0.00102536    0.00102536
         0.79    0.00102825    0.00102825
        0.795    0.00103002    0.00103002
          0.8    0.00103324    0.00103324
        0.805    0.00103707    0.00103707
         0.81    0.00103988    0.00103989
        0.815    0.00104282    0.00104282
         0.82    0.00104599    0.00104599
        0.825    0.00104918    0.00104919
         0.83    0.00105135    0.00105136
        0.835    0.00105443    0.00105443
         0.84    0.00105739    0.00105739
        0.845    0.00106046    0.00106046
         0.85    0.00106366    0.00106366
        0.855    0.00106664    0.00106664
         0.86    0.00107022    0.00107022
        0.865    0.00107323    0.00107324
         0.87    0.00107654    0.00107654
        0.875    0.00107969    0.00107969
         0.88    0.00108279     0.0010828
        0.885    0.00108583    0.00108583
         0.89    0.00108867    0.00108867
        0.895    0.00109106    0.00109106
          0.9    0.00109565    0.00109565
        0.905    0.00110105    0.00110106
         0.91    0.00110634    0.00110634
        0.915    0.00110928    0.00110928
         0.92    0.00111268    0.00111268
        0.925    0.00111671    0.00111671
         0.93    0.00111901    0.00111902
        0.935     0.0011225     0.0011225
         0.94     0.0011261     0.0011261
        0.945    0.00112978    0.00112978
         0.95    0.00113347    0.00113347
        0.955    0.00113736    0.00113736
         0.96     0.0011401    0.00114011
        0.965    0.00114385    0.00114385
         0.97    0.00114778    0.00114778
        0.975    0.00115136    0.00115137
         0.98      0.001155      0.001155
        0.985    0.00115884    0.00115884
         0.99    0.00116277    0.00116277
        0.995     0.0011671    0.00116711
            1     0.0011698    0.00116981
        1.005    0.00117361    0.00117361
         1.01    0.00117782    0.00117782
        1.015    0.00118208    0.00118208
         1.02     0.0011862     0.0011862
        1.025    0.00119052    0.00119052
         1.03    0.00119397    0.00119397
        1.035    0.00119844    0.00119844
         1.04     0.0012026     0.0012026
        1.045    0.00120707    0.00120707
         1.05    0.00121126    0.00121126
        1.055    0.00121597    0.00121597
         1.06    0.00121964    0.00121964
        1.065    0.00122283    0.00122283
         1.07    0.00122765    0.00122765
        1.075    0.00123271    0.00123272
         1.08    0.00123719    0.00123719
        1.085    0.00124155    0.00124155
         1.09    0.00124614    0.00124614
        1.095    0.00125127    0.00125128
          1.1    0.00125486    0.00125486
        1.105    0.00125967    0.00125967
         1.11    0.00126423    0.00126423
        1.115    0.00126883    0.00126884
         1.12    0.00127349    0.00127349
        1.125    0.00127812    0.00127812
         1.13    0.00128284    0.00128284
        1.135    0.00128763    0.00128763
         1.14    0.00129254    0.00129254
        1.145    0.00129775    0.00129775
         1.15    0.00130299    0.00130299
        1.155    0.00130627    0.00130628
         1.16    0.00131123    0.00131123
        1.165    0.00131679    0.00131679
         1.17    0.00132145    0.00132145
        1.175    0.00132565    0.00132565
         1.18    0.00133181    0.00133181
        1.185     0.0013349     0.0013349
         1.19    0.00134023    0.00134023
        1.195    0.00134555    0.00134556
          1.2    0.00135038    0.00135038
        1.205    0.00135505    0.00135505
         1.21    0.00136205    0.00136205
        1.215    0.00136653    0.00136653
         1.22    0.00137183    0.00137183
        1.225    0.00137702    0.00137702
         1.23    0.00138248    0.00138248
        1.235    0.00138672    0.00138672
         1.24    0.00139223    0.00139223
        1.245    0.00139842    0.00139842
         1.25    0.00140526    0.00140527
        1.255    0.00141174    0.00141174
         1.26      0.001415    0.00141501
        1.265    0.00142011    0.00142011
         1.27    0.00142549    0.00142549
        1.275    0.00143079    0.00143079
         1.28    0.00143596    0.00143596
        1.285    0.00144215    0.00144215
         1.29    0.00144863    0.00144863
        1.295    0.00145448    0.00145448
          1.3    0.00146004    0.00146005
        1.305    0.00146565    0.00146565
         1.31     0.0014715     0.0014715
        1.315    0.00147728    0.00147728
         1.32    0.00148361    0.00148361
        1.325    0.00149007    0.00149007
         1.33    0.00149417    0.00149417
        1.335    0.00149962    0.00149962
         1.34    0.00150551    0.00150551
        1.345    0.00151092    0.00151092
         1.35    0.00151532    0.00151532
        1.355     0.0015226     0.0015226
         1.36    0.00152774    0.00152774
        1.365    0.00153461    0.00153461
         1.37      0.001542    0.00154201
        1.375    0.00154664    0.00154664
         1.38    0.00154875    0.00154875
        1.385    0.00155844    0.00155844
         1.39    0.00157246    0.00157247
        1.395    0.00158028    0.00158028
          1.4     0.0015865     0.0015865
        1.405    0.00159253    0.00159253
         1.41    0.00159857    0.00159858
        1.415     0.0016048     0.0016048
         1.42    0.00161115    0.00161115
        1.425    0.00161781    0.00161781
         1.43    0.00162443    0.00162444
        1.435     0.0016312     0.0016312
         1.44    0.00163641    0.00163641
        1.445    0.00164174    0.00164174
         1.45    0.00164831    0.00164831
        1.455    0.00165474    0.00165474
         1.46      0.001661      0.001661
        1.465    0.00166799    0.00166799
         1.47    0.00167509    0.00167509
        1.475    0.00168228    0.00168228
         1.48    0.00168897    0.00168897
        1.485    0.00169581    0.00169581
         1.49     0.0017024     0.0017024
        1.495    0.00170914    0.00170915
          1.5    0.00171585    0.00171585
        1.505    0.00172242    0.00172242
         1.51    0.00172923    0.00172923
        1.515    0.00173673    0.00173673
         1.52    0.00174449    0.00174449
        1.525     0.0017527    0.00175271
         1.53    0.00175994    0.00175994
        1.535     0.0017671    0.00176711
         1.54     0.0017744     0.0017744
        1.545    0.00178157    0.00178157
         1.55    0.00178911    0.00178911
        1.555      0.001797      0.001797
         1.56    0.00180613    0.00180614
        1.565    0.00181386    0.00181386
         1.57    0.00181752    0.00181752
        1.575    0.00182516    0.00182516
         1.58    0.00183394    0.00183394
        1.585     0.0018406     0.0018406
         1.59    0.00184429    0.00184429
        1.595    0.00185185    0.00185185
          1.6    0.00185925    0.00185925
        1.605    0.00186755    0.00186755
         1.61    0.00187528    0.00187528
        1.615    0.00188306    0.00188306
         1.62    0.00189124    0.00189124
        1.625    0.00189989    0.00189989
         1.63    0.00190308    0.00190309
        1.635     0.0019099     0.0019099
         1.64    0.00191752    0.00191752
        1.645    0.00192506    0.00192506
         1.65    0.00193282    0.00193282
        1.655    0.00194069    0.00194069
         1.66    0.00194871    0.00194871
        1.665     0.0019566     0.0019566
         1.67    0.00196454    0.00196454
        1.675    0.00197247    0.00197247
         1.68    0.00198069    0.00198069
        1.685    0.00198907    0.00198908
         1.69    0.00199764    0.00199765
        1.695    0.00200559    0.00200559
          1.7    0.00200954    0.00200954
        1.705    0.00201564    0.00201564
         1.71    0.00202333    0.00202333
        1.715    0.00203053    0.00203054
         1.72    0.00203898    0.00203898
        1.725    0.00204808    0.00204808
         1.73    0.00205798    0.00205799
        1.735    0.00206569    0.00206569
         1.74    0.00207301    0.00207301
        1.745    0.00208156    0.00208156
         1.75    0.00209051    0.00209051
        1.755    0.00209911    0.00209911
         1.76     0.0021078     0.0021078
        1.765     0.0021164     0.0021164
         1.77    0.00212506    0.00212507
        1.775    0.00213329    0.00213329
         1.78    0.00214162    0.00214163
        1.785    0.00215007    0.00215008
         1.79    0.00215865    0.00215865
        1.795    0.00216751    0.00216751
          1.8    0.00217633    0.00217634
        1.805    0.00218161    0.00218161
         1.81    0.00218659    0.00218659
        1.815    0.00219431    0.00219431
         1.82    0.00220357    0.00220357
        1.825    0.00221188    0.00221188
         1.83    0.00222015    0.00222015
        1.835    0.00222731    0.00222731
         1.84    0.00223682    0.00223682
        1.845    0.00224487    0.00224487
         1.85    0.00225284    0.00225284
        1.855    0.00226055    0.00226056
         1.86    0.00226735    0.00226735
        1.865    0.00227431     0.0022743
         1.87    0.00227903    0.00227903
        1.875     0.0022955     0.0022955
         1.88    0.00231516    0.00231517
        1.885    0.00232252    0.00232253
         1.89    0.00233097    0.00233097
        1.895    0.00233917    0.00233917
          1.9    0.00234727    0.00234727
        1.905    0.00235513    0.00235514
         1.91    0.00236319    0.00236319
        1.915     0.0023731     0.0023731
         1.92    0.00238338    0.00238339
        1.925    0.00239187    0.00239187
         1.93    0.00240017    0.00240018
        1.935     0.0024088     0.0024088
         1.94    0.00241764    0.00241764
        1.945    0.00242909    0.00242909
         1.95    0.00243907    0.00243907
        1.955    0.00244817    0.00244817
         1.96     0.0024539     0.0024539
        1.965    0.00246334    0.00246335
         1.97    0.00247028    0.00247028
        1.975    0.00247836    0.00247836
         1.98    0.00248484    0.00248484
        1.985    0.00249406    0.00249406
         1.99    0.00250311    0.00250311
        1.995    0.00251218    0.00251218
            2    0.00252118    0.00252118
        2.005    0.00252995    0.00252996
         2.01    0.00253871    0.00253871
        2.015    0.00254918    0.00254918
         2.02    0.00255993    0.00255993
        2.025    0.00256932    0.00256933
         2.03    0.00257825    0.00257825
        2.035    0.00258705    0.00258706
         2.04    0.00259665    0.00259665
        2.045    0.00260642    0.00260642
         2.05    0.00261615    0.00261615
        2.055     0.0026258     0.0026258
         2.06    0.00263591    0.00263591
        2.065    0.00264681    0.00264681
         2.07    0.00265228    0.00265228
        2.075    0.00266069    0.00266069
         2.08    0.00267045    0.00267045
        2.085    0.00268339    0.00268339
         2.09    0.00268806    0.00268806
        2.095     0.0026971    0.00269711
          2.1     0.0027074     0.0027074
        2.105    0.00271818    0.00271818
         2.11    0.00273162    0.00273162
        2.115    0.00273607    0.00273606
         2.12    0.00274554    0.00274555
        2.125    0.00275511    0.00275511
         2.13    0.00276471    0.00276471
        2.135    0.00277435    0.00277436
         2.14    0.00278406    0.00278406
        2.145    0.00279388    0.00279388
         2.15    0.00280376    0.00280377
        2.155    0.00281401    0.00281401
         2.16    0.00282578    0.00282578
        2.165    0.00283401    0.00283401
         2.17    0.00283992    0.00283992
        2.175    0.00284947    0.00284947
         2.18    0.00285938    0.00285938
        2.185     0.0028692     0.0028692
         2.19    0.00287887    0.00287887
        2.195    0.00288856    0.00288857
          2.2    0.00289816    0.00289816
        2.205    0.00290794    0.00290794
         2.21    0.00291771    0.00291771
        2.215    0.00292751    0.00292751
         2.22    0.00293727    0.00293727
        2.225    0.00294706    0.00294707
         2.23    0.00295706    0.00295706
        2.235    0.00296734    0.00296734
         2.24    0.00297444    0.00297444
        2.245    0.00298375    0.00298375
         2.25    0.00298597    0.00298597
        2.255    0.00298749    0.00298749
         2.26    0.00300409     0.0030041
        2.265    0.00302211    0.00302214
         2.27    0.00304132    0.00304133
        2.275    0.00305098    0.00305098
         2.28    0.00306073    0.00306073
        2.285    0.00307052    0.00307052
         2.29    0.00308017    0.00308017
        2.295    0.00308982    0.00308982
          2.3    0.00309956    0.00309956
        2.305     0.0031092     0.0031092
         2.31    0.00311943    0.00311943
        2.315    0.00312989     0.0031299
         2.32    0.00313994    0.00313994
        2.325    0.00314996    0.00314996
         2.33    0.00316004    0.00316004
        2.335    0.00317015    0.00317015
         2.34    0.00318026    0.00318027
        2.345    0.00319036    0.00319036
         2.35    0.00320049    0.00320049
        2.355     0.0032113    0.00321129
         2.36    0.00322212    0.00322212
        2.365    0.00323364    0.00323364
         2.37    0.00324476    0.00324476
        2.375    0.00325128    0.00325128
         2.38    0.00325788    0.00325788
        2.385    0.00326632    0.00326632
         2.39    0.00327926    0.00327927
        2.395    0.00328998    0.00328997
          2.4    0.00330027    0.00330028
        2.405     0.0033106    0.00331061
         2.41    0.00332088    0.00332088
        2.415    0.00333108    0.00333109
         2.42     0.0033412     0.0033412
        2.425    0.00335113    0.00335113
         2.43    0.00336044    0.00336044
        2.435    0.00337227    0.00337227
         2.44    0.00338405    0.00338405
        2.445    0.00339482    0.00339483
         2.45    0.00340466    0.00340467
        2.455    0.00341515    0.00341515
         2.46    0.00342627    0.00342627
        2.465    0.00343779     0.0034378
         2.47    0.00345047    0.00345048
        2.475    0.00345829    0.00345829
         2.48    0.00346805    0.00346805
        2.485    0.00347839     0.0034784
         2.49    0.00348892    0.00348892
        2.495    0.00349942    0.00349942
          2.5    0.00350987    0.00350988
        2.505     0.0035205     0.0035205
         2.51     0.0035311     0.0035311
        2.515    0.00354179    0.00354179
         2.52    0.00355259    0.00355259
        2.525    0.00356084    0.00356083
         2.53    0.00356989     0.0035699
        2.535    0.00357894    0.00357894
         2.54    0.00359037    0.00359037
        2.545    0.00360212     0.0036021
         2.55    0.00361264    0.00361265
        2.555    0.00362091     0.0036209
         2.56    0.00362728    0.00362729
        2.565     0.0036324    0.00363239
         2.57    0.00363392    0.00363392
        2.575    0.00365381    0.00365382
         2.58    0.00367931    0.00367932
        2.585    0.00369363    0.00369363
         2.59    0.00370496    0.00370496
        2.595     0.0037159     0.0037159
          2.6    0.00372678    0.00372678
        2.605    0.00373791    0.00373791
         2.61    0.00374912    0.00374912
        2.615    0.00376016    0.00376017
         2.62    0.00377113    0.00377113
        2.625    0.00378217    0.00378216
         2.63    0.00379336    0.00379336
        2.635    0.00380492    0.00380491
         2.64    0.00381635    0.00381635
        2.645    0.00382779    0.00382779
         2.65    0.00383919     0.0038392
        2.655    0.00385063    0.00385064
         2.66    0.00386227    0.00386227
        2.665    0.00387391    0.00387391
         2.67    0.00388549    0.00388549
        2.675    0.00389708    0.00389708
         2.68    0.00390871    0.00390871
        2.685    0.00392044    0.00392045
         2.69    0.00393229    0.00393229
        2.695    0.00394437    0.00394437
          2.7    0.00395726    0.00395726
        2.705    0.00396863    0.00396863
         2.71    0.00397512    0.00397511
        2.715    0.00398659     0.0039866
         2.72    0.00399835    0.00399834
        2.725    0.00401013    0.00401014
         2.73    0.00402199    0.00402199
        2.735    0.00403394    0.00403394
         2.74    0.00404595    0.00404595
        2.745    0.00405788    0.00405789
         2.75    0.00407318    0.00407319
        2.755    0.00408097    0.00408096
         2.76    0.00409293    0.00409292
        2.765    0.00410482    0.00410482
         2.77    0.00411674    0.00411673
        2.775    0.00412922    0.00412923
         2.78    0.00414155    0.00414153
        2.785    0.00415369     0.0041537
         2.79    0.00416626    0.00416626
        2.795    0.00417868    0.00417869
          2.8    0.00419193    0.00419194
        2.805    0.00420478    0.00420479
         2.81    0.00421933    0.00421933
        2.815     0.0042359     0.0042359
         2.82     0.0042546    0.00425463
        2.825    0.00425906    0.00425903
         2.83    0.00426432    0.00426431
        2.835    0.00426156    0.00426155
         2.84    0.00427418    0.00427418
        2.845    0.00428771    0.00428771
         2.85    0.00429917    0.00429918
        2.855    0.00430937    0.00430936
         2.86    0.00431863    0.00431864
        2.865    0.00433068    0.00433069
         2.87    0.00434217    0.00434217
        2.875    0.00435557    0.00435558
         2.88    0.00436774    0.00436772
        2.885    0.00437908    0.00437909
         2.89     0.0043908     0.0043908
        2.895    0.00440472    0.00440473
          2.9    0.00441887    0.00441887
        2.905    0.00442675    0.00442675
         2.91    0.00443587    0.00443588
        2.915    0.00444785    0.00444784
         2.92    0.00446078    0.00446078
        2.925    0.00447653    0.00447653
         2.93    0.00448326    0.00448325
        2.935    0.00449491    0.00449491
         2.94    0.00450697    0.00450698
        2.945    0.00451904    0.00451905
         2.95    0.00453125    0.00453125
        2.955    0.00454331    0.00454331
         2.96    0.00455524    0.00455524
        2.965    0.00456693    0.00456694
         2.97       0.00458    0.00458001
        2.975    0.00459306    0.00459305
         2.98    0.00460636    0.00460636
        2.985    0.00461821     0.0046182
         2.99    0.00463039    0.00463039
        2.995    0.00464291    0.00464291
            3    0.00465557    0.00465557
        3.005    0.00466842    0.00466842
         3.01     0.0046815     0.0046815
        3.015    0.00469499    0.00469499
         3.02    0.00470909    0.00470909
        3.025    0.00472524    0.00472525
         3.03    0.00473743    0.00473742
        3.035    0.00474335    0.00474336
         3.04    0.00474449    0.00474447
        3.045    0.00475716    0.00475716
         3.05    0.00477021     0.0047702
        3.055    0.00478327    0.00478326
         3.06    0.00479585    0.00479585
        3.065    0.00480865    0.00480865
         3.07    0.00482206    0.00482207
        3.075    0.00483667    0.00483667
         3.08    0.00484655    0.00484656
        3.085     0.0048539    0.00485389
         3.09    0.00486715    0.00486715
        3.095    0.00488028    0.00488028
          3.1     0.0048936     0.0048936
        3.105    0.00490712    0.00490712
         3.11    0.00491974    0.00491974
        3.115    0.00493264    0.00493265
         3.12    0.00494618    0.00494618
        3.125    0.00495887    0.00495887
         3.13    0.00497273    0.00497274
        3.135    0.00498585    0.00498584
         3.14     0.0049982     0.0049982
        3.145    0.00501081    0.00501081
         3.15    0.00502317    0.00502317
        3.155    0.00503582    0.00503582
         3.16    0.00504996    0.00504996
        3.165    0.00506465    0.00506465
         3.17    0.00507808    0.00507808
        3.175    0.00509117    0.00509117
         3.18    0.00510461    0.00510461
        3.185     0.0051184     0.0051184
         3.19    0.00513368    0.00513369
        3.195    0.00515232    0.00515231
          3.2     0.0051583     0.0051583
        3.205    0.00516522     0.0051652
         3.21    0.00516786    0.00516785
        3.215    0.00518116    0.00518117
         3.22    0.00519198    0.00519197
        3.225    0.00520768    0.00520769
         3.23    0.00522103    0.00522103
        3.235    0.00523477    0.00523478
         3.24    0.00524867    0.00524867
        3.245    0.00526233    0.00526232
         3.25    0.00527576    0.00527576
        3.255    0.00528886    0.00528887
         3.26    0.00530209    0.00530208
        3.265     0.0053157    0.00531569
         3.27    0.00532923    0.00532923
        3.275     0.0053429    0.00534289
         3.28    0.00535681    0.00535681
        3.285    0.00537089    0.00537089
         3.29    0.00538493    0.00538494
        3.295    0.00539467    0.00539468
          3.3    0.00540452    0.00540452
        3.305    0.00541845    0.00541844
         3.31    0.00543335    0.00543334
        3.315    0.00544852    0.00544853
         3.32    0.00546475    0.00546475
        3.325    0.00548077    0.00548077
         3.33    0.00549397    0.00549399
        3.335    0.00550147    0.00550145
         3.34    0.00550818    0.00550814
        3.345    0.00551749     0.0055175
         3.35    0.00553148    0.00553148
        3.355    0.00554589    0.00554589
         3.36    0.00555955    0.00555955
        3.365    0.00557367    0.00557367
         3.37    0.00558782    0.00558782
        3.375    0.00560221    0.00560222
         3.38    0.00561514    0.00561514
        3.385    0.00562827    0.00562827
         3.39    0.00564239    0.00564239
        3.395    0.00565587    0.00565586
          3.4    0.00566885    0.00566885
        3.405    0.00568201    0.00568201
         3.41    0.00569757    0.00569758
        3.415    0.00571237    0.00571236
         3.42    0.00572607    0.00572607
        3.425    0.00573989     0.0057399
         3.43    0.00575342    0.00575343
        3.435    0.00576934    0.00576935
         3.44    0.00578758     0.0057876
        3.445    0.00579665    0.00579663
         3.45    0.00580486    0.00580483
        3.455    0.00581587    0.00581587
         3.46    0.00582957    0.00582957
        3.465     0.0058437     0.0058437
         3.47     0.0058579    0.00585791
        3.475    0.00587195    0.00587196
         3.48    0.00588722    0.00588722
        3.485    0.00590329    0.00590329
         3.49    0.00591993    0.00591992
        3.495    0.00592843    0.00592844
          3.5    0.00593833    0.00593833
        3.505    0.00595255    0.00595254
         3.51    0.00596737    0.00596737
        3.515    0.00598237    0.00598237
         3.52    0.00599701    0.00599702
        3.525    0.00601275    0.00601276
         3.53    0.00602958    0.00602956
        3.535     0.0060388     0.0060388
         3.54    0.00604781     0.0060478
        3.545    0.00606177    0.00606177
         3.55    0.00607733    0.00607733
        3.555    0.00609146    0.00609146