/*--------------------------------*- C++ -*----------------------------------*\
  =========                 |
  \\      /  F ield         | OpenFOAM: The Open Source CFD Toolbox
   \\    /   O peration     | Website:  https://openfoam.org
    \\  /    A nd           | Version:  7
     \\/     M anipulation  |
\*---------------------------------------------------------------------------*/
FoamFile
{
    version     2.0;
    format      ascii;
    class       volScalarField;
    location    "0.5";
    object      p;
}
// * * * * * * * * * * * * * * * * * * * * * * * * * * * * * * * * * * * * * //

dimensions      [0 2 -2 0 0 0 0];

internalField   nonuniform List<scalar> 
3200
(
1.16538e-06
-8.79581e-05
-0.000417535
-0.000937978
-0.00157034
-0.00225441
-0.00294412
-0.00360708
-0.00422111
-0.00477241
-0.00525351
-0.00566141
-0.00599618
-0.0062598
-0.00645528
-0.00658605
-0.00665543
-0.00666635
-0.0066211
-0.00652125
-0.00636754
-0.00615986
-0.00589727
-0.00557802
-0.00519954
-0.00475847
-0.0042507
-0.00367131
-0.00301467
-0.00227433
-0.00144307
-0.000512862
0.00052514
0.00168061
0.00296405
0.0043868
0.00596097
0.00769945
0.00961578
0.011724
0.0140387
0.0165746
0.0193462
0.0223678
0.0256528
0.0292135
0.0330603
0.0372011
0.0416406
0.0463799
0.051415
0.0567364
0.0623281
0.0681668
0.074221
0.0804506
0.0868067
0.0932311
0.0996567
0.106009
0.112206
0.118161
0.123785
0.12899
0.133691
0.137812
0.141287
0.144067
0.146121
0.147441
0.148042
0.147969
0.147292
0.146108
0.144544
0.142759
0.14094
0.139318
0.138173
0.137729
9.11361e-05
1.46511e-07
-0.000279356
-0.000705597
-0.00122206
-0.00178544
-0.00236072
-0.0029209
-0.00344634
-0.00392375
-0.00434486
-0.00470521
-0.00500304
-0.00523842
-0.00541249
-0.00552695
-0.0055836
-0.00558405
-0.0055295
-0.00542059
-0.00525734
-0.00503912
-0.00476456
-0.00443161
-0.00403755
-0.00357892
-0.00305161
-0.00245081
-0.00177103
-0.00100607
-0.000149028
0.000807724
0.00187253
0.00305449
0.00436339
0.00580978
0.00740484
0.00916042
0.0110889
0.013203
0.0155159
0.0180407
0.0207904
0.0237775
0.0270137
0.0305093
0.034273
0.0383111
0.0426266
0.0472192
0.0520839
0.0572105
0.0625829
0.0681783
0.0739665
0.0799094
0.085961
0.0920671
0.0981658
0.104188
0.11006
0.115702
0.121034
0.125976
0.130455
0.134401
0.137758
0.140484
0.142555
0.143965
0.144735
0.144904
0.14454
0.143732
0.142593
0.141258
0.139881
0.138636
0.137717
0.137282
0.000425086
0.000276642
-8.3244e-06
-0.000399559
-0.000859516
-0.00135555
-0.00186048
-0.00235268
-0.00281584
-0.00323837
-0.00361258
-0.00393386
-0.00419981
-0.00440962
-0.00456342
-0.00466187
-0.00470578
-0.00469585
-0.00463246
-0.00451558
-0.00434467
-0.00411862
-0.00383573
-0.00349371
-0.00308966
-0.00262007
-0.00208083
-0.00146722
-0.000773899
5.10586e-06
0.0008764
0.00184724
0.00292553
0.00411983
0.00543936
0.00689397
0.0084941
0.0102507
0.0121754
0.0142798
0.016576
0.0190762
0.0217921
0.0247351
0.0279159
0.0313437
0.0350262
0.0389687
0.0431739
0.0476408
0.0523644
0.0573348
0.0625364
0.0679473
0.0735391
0.0792757
0.0851137
0.091002
0.0968823
0.10269
0.108355
0.113803
0.118958
0.123748
0.1281
0.131952
0.135251
0.137959
0.140053
0.14153
0.14241
0.142731
0.142556
0.141966
0.141063
0.139963
0.138795
0.137696
0.136786
0.136155
0.000962581
0.000704963
0.000369649
-2.96731e-05
-0.000474984
-0.000941329
-0.00140754
-0.00185713
-0.00227749
-0.00265948
-0.00299689
-0.00328582
-0.00352412
-0.0037108
-0.00384562
-0.0039287
-0.00396026
-0.00394038
-0.0038689
-0.00374524
-0.00356843
-0.00333697
-0.00304888
-0.00270166
-0.00229229
-0.0018172
-0.0012723
-0.000652975
4.59555e-05
0.000830227
0.00170615
0.00268061
0.00376108
0.00495565
0.00627297
0.00772228
0.00931338
0.0110566
0.0129625
0.0150423
0.0173073
0.0197686
0.0224375
0.0253247
0.0284402
0.0317927
0.0353896
0.0392362
0.0433351
0.0476858
0.0522838
0.0571201
0.0621805
0.0674447
0.072886
0.0784707
0.0841577
0.0898985
0.0956377
0.101313
0.106858
0.1122
0.117266
0.121984
0.126286
0.130109
0.1334
0.136122
0.138253
0.139788
0.140744
0.141158
0.141088
0.14061
0.139813
0.138801
0.137684
0.136573
0.135525
0.134563
0.001631
0.0012315
0.000818271
0.000386063
-6.79567e-05
-0.000525469
-0.000970634
-0.00139199
-0.00178083
-0.00213077
-0.00243752
-0.00269841
-0.00291193
-0.00307736
-0.00319441
-0.00326296
-0.00328287
-0.00325381
-0.00317517
-0.00304596
-0.00286482
-0.00262996
-0.00233913
-0.00198967
-0.00157844
-0.00110186
-0.00055591
6.39224e-05
0.000762614
0.00154563
0.00241896
0.00338908
0.00446303
0.00564837
0.00695321
0.0083862
0.00995647
0.0116737
0.0135479
0.0155894
0.017809
0.0202174
0.0228251
0.0256425
0.0286793
0.0319442
0.0354448
0.0391865
0.0431726
0.0474035
0.0518759
0.0565822
0.06151
0.0666411
0.0719511
0.0774086
0.0829752
0.0886049
0.0942447
0.0998346
0.105309
0.110598
0.11563
0.120332
0.124634
0.128475
0.1318
0.134568
0.136756
0.138357
0.139384
0.13987
0.13987
0.139451
0.138696
0.137696
0.136548
0.135348
0.134091
0.132748
0.00237112
0.0018114
0.00130206
0.000819115
0.000338858
-0.000126103
-0.000564629
-0.000970046
-0.0013375
-0.00166354
-0.00194602
-0.00218377
-0.00237625
-0.00252326
-0.00262475
-0.00268058
-0.00269043
-0.00265371
-0.00256949
-0.00243648
-0.00225302
-0.00201705
-0.00172615
-0.00137751
-0.000967952
-0.000493916
4.85401e-05
0.00066375
0.00135645
0.00213181
0.00299544
0.00395338
0.0050122
0.00617891
0.00746107
0.00886669
0.0104043
0.012083
0.0139122
0.0159016
0.0180615
0.0204022
0.022934
0.025667
0.0286111
0.0317751
0.0351671
0.0387933
0.0426581
0.0467631
0.0511069
0.0556838
0.0604836
0.0654906
0.0706831
0.0760326
0.0815031
0.0870513
0.0926265
0.0981705
0.103619
0.108903
0.113949
0.118685
0.123039
0.126945
0.130346
0.133198
0.135472
0.137157
0.138261
0.138814
0.138862
0.138471
0.137715
0.136675
0.135444
0.134103
0.132603
0.130872
0.00313205
0.00240322
0.00178641
0.00124012
0.000720543
0.000235432
-0.000208203
-0.000608163
-0.000963323
-0.00127316
-0.00153778
-0.00175765
-0.00193338
-0.00206552
-0.00215439
-0.00220001
-0.00220206
-0.00215978
-0.00207206
-0.00193737
-0.00175384
-0.00151924
-0.00123101
-0.000886275
-0.00048185
-1.42514e-05
0.000520317
0.00112597
0.00180716
0.00256868
0.00341573
0.00435389
0.00538918
0.00652806
0.00777748
0.00914487
0.0106382
0.0122658
0.0140366
0.0159601
0.0180458
0.020304
0.0227447
0.0253783
0.0282147
0.0312636
0.0345336
0.0380323
0.0417654
0.0457364
0.0499459
0.0543908
0.0590636
0.0639514
0.0690357
0.0742908
0.079684
0.0851746
0.0907141
0.0962462
0.101707
0.107028
0.112135
0.116953
0.121407
0.125428
0.128952
0.131929
0.134325
0.136121
0.13732
0.137945
0.138038
0.137658
0.136874
0.135763
0.134412
0.1329
0.131142
0.129037
0.00386997
0.00296835
0.00223765
0.00161987
0.00105202
0.000537616
8.00005e-05
-0.000322801
-0.00067322
-0.000973581
-0.00122623
-0.00143334
-0.00159675
-0.00171782
-0.00179739
-0.00183572
-0.00183256
-0.00178714
-0.00169819
-0.00156408
-0.00138278
-0.00115194
-0.000868956
-0.000530933
-0.000134759
0.000322917
0.000845679
0.00143736
0.00210206
0.00284416
0.00366836
0.00457973
0.00558371
0.00668615
0.00789338
0.0092122
0.0106499
0.0122144
0.0139141
0.0157579
0.0177552
0.019916
0.0222506
0.0247693
0.0274828
0.0304014
0.0335351
0.0368926
0.0404817
0.0443081
0.0483747
0.0526813
0.0572236
0.0619921
0.0669716
0.0721401
0.0774679
0.0829176
0.0884431
0.0939898
0.0994953
0.10489
0.110099
0.115043
0.119644
0.123827
0.127522
0.13067
0.13323
0.135174
0.136496
0.137213
0.13736
0.13699
0.136169
0.13497
0.133482
0.131784
0.129766
0.127305
0.00454575
0.00347083
0.00262315
0.00192904
0.00130712
0.000757128
0.000279062
-0.00013296
-0.000484742
-0.000781339
-0.00102727
-0.00122639
-0.00138174
-0.00149555
-0.00156919
-0.00160324
-0.00159757
-0.00155142
-0.00146351
-0.00133209
-0.00115508
-0.000930092
-0.000654514
-0.000325532
5.98351e-05
0.00050473
0.00101246
0.00158649
0.0022305
0.00294839
0.00374431
0.00462273
0.00558846
0.00664671
0.00780314
0.0090639
0.0104357
0.0119258
0.0135422
0.0152934
0.0171886
0.0192378
0.0214513
0.02384
0.0264152
0.0291883
0.0321705
0.0353724
0.0388038
0.0424728
0.0463854
0.0505445
0.0549491
0.0595938
0.064467
0.0695507
0.074819
0.0802378
0.085764
0.0913452
0.0969199
0.102418
0.107764
0.112875
0.117668
0.122061
0.125976
0.129345
0.132116
0.134251
0.135735
0.136574
0.136796
0.136449
0.135595
0.134307
0.132676
0.130788
0.128512
0.125714
0.00512379
0.00387687
0.00291128
0.00213832
0.00145886
0.000869142
0.000366079
-5.99187e-05
-0.000417859
-0.000715392
-0.000959104
-0.00115444
-0.00130563
-0.0014157
-0.00148656
-0.00151911
-0.00151338
-0.00146866
-0.00138367
-0.00125665
-0.0010855
-0.000867864
-0.000601211
-0.000282867
8.99359e-05
0.000520051
0.00101042
0.00156408
0.0021842
0.00287412
0.00363737
0.00447776
0.00539941
0.00640681
0.00750494
0.00869926
0.00999584
0.0114014
0.0129235
0.0145702
0.0163507
0.0182748
0.0203533
0.0225975
0.0250197
0.0276322
0.0304479
0.0334794
0.0367387
0.0402366
0.0439823
0.0479821
0.0522391
0.0567517
0.0615128
0.0665086
0.0717176
0.0771096
0.0826448
0.0882736
0.093936
0.0995626
0.105075
0.110389
0.115415
0.120064
0.124248
0.12789
0.130924
0.1333
0.134991
0.135992
0.136322
0.136022
0.135151
0.133783
0.132013
0.129937
0.127409
0.124284
0.00557099
0.00415429
0.00307121
0.00221848
0.0014797
0.000847821
0.00031679
-0.000126526
-0.00049419
-0.000796306
-0.00104141
-0.00123643
-0.00138668
-0.00149595
-0.00156663
-0.00159991
-0.00159599
-0.00155424
-0.0014734
-0.00135174
-0.00118722
-0.000977571
-0.00072042
-0.000413317
-5.37885e-05
0.000360645
0.000832475
0.00136422
0.00195847
0.0026179
0.00334537
0.00414394
0.00501699
0.00596826
0.00700195
0.00812285
0.00933637
0.0106487
0.0120668
0.0135986
0.0152531
0.0170403
0.0189711
0.0210577
0.023313
0.0257509
0.0283858
0.0312323
0.034305
0.0376176
0.0411826
0.04501
0.049107
0.0534765
0.0581161
0.0630166
0.0681615
0.0735249
0.0790714
0.0847544
0.0905165
0.0962889
0.101993
0.10754
0.112837
0.117785
0.122288
0.126255
0.129607
0.13228
0.134231
0.135442
0.135921
0.135703
0.134841
0.13341
0.131513
0.129254
0.126478
0.123031
0.00585593
0.00427206
0.00307269
0.00214036
0.00134174
0.000666565
0.000105914
-0.000356788
-0.000736536
-0.00104576
-0.00129482
-0.00149201
-0.00164363
-0.00175412
-0.00182631
-0.00186166
-0.0018605
-0.00182227
-0.00174579
-0.0016294
-0.00147115
-0.00126897
-0.00102069
-0.000724181
-0.000377347
2.18283e-05
0.000475298
0.000984975
0.00155277
0.00218065
0.00287068
0.00362515
0.00444662
0.00533801
0.00630276
0.00734491
0.0084692
0.00968123
0.0109876
0.0123959
0.013915
0.015555
0.0173273
0.0192447
0.0213211
0.0235717
0.0260127
0.0286609
0.0315333
0.0346467
0.0380169
0.041658
0.0455813
0.0497946
0.0543002
0.0590945
0.064166
0.0694942
0.0750483
0.080786
0.086653
0.0925823
0.0984949
0.1043
0.1099
0.115188
0.120056
0.124402
0.12813
0.131159
0.133429
0.134907
0.135586
0.135491
0.134673
0.133205
0.131198
0.128767
0.125745
0.121973
0.00594832
0.00419987
0.00288582
0.00187475
0.00101668
0.00029815
-0.000292614
-0.000775557
-0.00116851
-0.00148614
-0.00174049
-0.0019411
-0.00209515
-0.00220766
-0.00228181
-0.00231928
-0.00232051
-0.00228505
-0.00221177
-0.00209916
-0.00194543
-0.00174873
-0.00150723
-0.00121917
-0.000882945
-0.000497085
-6.02633e-05
0.000428737
0.000971073
0.00156791
0.00222048
0.00293021
0.00369878
0.0045283
0.00542136
0.00638125
0.00741204
0.00851876
0.00970754
0.0109858
0.0123622
0.013847
0.0154522
0.017191
0.0190786
0.0211314
0.0233674
0.0258054
0.0284651
0.0313664
0.0345284
0.0379694
0.0417049
0.0457476
0.0501052
0.0547796
0.059765
0.0650467
0.0705996
0.0763865
0.0823571
0.0884474
0.0945792
0.100661
0.10659
0.112252
0.11753
0.122306
0.126468
0.129915
0.132569
0.134376
0.135315
0.135396
0.134664
0.133192
0.131096
0.128504
0.125238
0.121131
0.00581864
0.00390786
0.0024808
0.00139228
0.000475855
-0.000285178
-0.00090545
-0.00140825
-0.0018142
-0.00214009
-0.00239957
-0.00260334
-0.00275932
-0.00287304
-0.00294797
-0.00298596
-0.00298756
-0.00295241
-0.0028795
-0.00276747
-0.00261479
-0.00241992
-0.0021814
-0.00189797
-0.00156859
-0.00119244
-0.000768891
-0.000297515
0.000222018
0.000789997
0.00140677
0.00207283
0.00278898
0.00355642
0.00437693
0.00525302
0.00618807
0.00718655
0.00825417
0.00939805
0.0106269
0.0119511
0.0133829
0.0149365
0.0166278
0.0184747
0.0204969
0.0227154
0.0251522
0.0278303
0.0307723
0.0340003
0.0375345
0.0413922
0.0455868
0.0501258
0.0550099
0.0602305
0.065769
0.0715941
0.0776608
0.0839093
0.0902637
0.0966327
0.10291
0.108976
0.114702
0.119957
0.12461
0.12854
0.131646
0.133851
0.135115
0.135433
0.134838
0.1334
0.131243
0.128505
0.124996
0.120539
0.00543785
0.0033663
0.00182768
0.000663241
-0.000309882
-0.00111169
-0.00175972
-0.00228063
-0.00269782
-0.00303015
-0.00329282
-0.00349758
-0.00365305
-0.00376519
-0.00383771
-0.0038726
-0.00387051
-0.00383119
-0.00375381
-0.00363721
-0.00348018
-0.00328155
-0.00304036
-0.00275593
-0.00242785
-0.00205604
-0.00164068
-0.00118218
-0.000681107
-0.000138108
0.000446217
0.00107143
0.00173738
0.00244439
0.00319338
0.0039861
0.00482526
0.00571479
0.00665997
0.0076677
0.00874662
0.00990732
0.0111624
0.0125268
0.0140174
0.0156534
0.017456
0.0194483
0.0216548
0.0241013
0.0268137
0.029818
0.0331387
0.0367981
0.040815
0.045203
0.0499692
0.0551119
0.0606194
0.0664674
0.0726173
0.0790147
0.0855879
0.0922469
0.0988842
0.105375
0.111583
0.117361
0.122559
0.127037
0.130665
0.133344
0.135007
0.135629
0.135229
0.133872
0.131686
0.12882
0.125068
0.120245
0.00477706
0.00254524
0.00089606
-0.000342691
-0.00137032
-0.00221022
-0.00288297
-0.00341865
-0.00384346
-0.00417838
-0.0044401
-0.0046414
-0.00479157
-0.00489692
-0.00496142
-0.00498717
-0.00497495
-0.00492468
-0.0048357
-0.00470718
-0.00453826
-0.00432826
-0.00407679
-0.00378382
-0.0034497
-0.00307512
-0.00266116
-0.00220913
-0.00172056
-0.00119705
-0.000640187
-5.1372e-05
0.000568311
0.00121828
0.00189864
0.00261037
0.00335556
0.00413759
0.00496138
0.00583361
0.0067629
0.00776
0.00883797
0.0100123
0.0113008
0.012724
0.0143046
0.0160675
0.0180397
0.0202494
0.0227258
0.0254986
0.0285964
0.0320464
0.0358727
0.040095
0.0447269
0.0497741
0.0552322
0.0610847
0.0673006
0.0738322
0.0806135
0.0875581
0.094559
0.101489
0.108203
0.114541
0.120337
0.125423
0.129647
0.132877
0.135017
0.136019
0.135882
0.13466
0.132483
0.129509
0.125516
0.120307
0.00380726
0.00141409
-0.000345375
-0.00165681
-0.00273615
-0.00361035
-0.00430317
-0.00484829
-0.00527485
-0.00560598
-0.00585994
-0.00605055
-0.00618776
-0.00627828
-0.00632631
-0.00633412
-0.00630266
-0.00623202
-0.00612186
-0.00597169
-0.00578112
-0.00555004
-0.0052787
-0.00496781
-0.00461853
-0.00423243
-0.00381151
-0.00335803
-0.00287451
-0.00236354
-0.00182769
-0.00126932
-0.00069045
-9.25168e-05
0.00052378
0.00115872
0.00181378
0.00249187
0.00319757
0.00393739
0.00471994
0.00555615
0.00645949
0.00744604
0.00853458
0.00974663
0.0111064
0.0126405
0.014378
0.0163497
0.0185876
0.0211248
0.023994
0.0272268
0.0308526
0.0348969
0.0393801
0.044315
0.0497052
0.0555425
0.0618044
0.0684514
0.0754245
0.0826431
0.0900033
0.0973771
0.104614
0.111543
0.11798
0.123735
0.128625
0.132486
0.135189
0.136653
0.136854
0.135829
0.133705
0.13065
0.12642
0.120806
0.00249881
-5.88661e-05
-0.00192937
-0.00331185
-0.00443936
-0.00534262
-0.00604883
-0.00659556
-0.0070151
-0.00733296
-0.00756907
-0.0077384
-0.00785164
-0.00791595
-0.00793583
-0.00791377
-0.00785096
-0.00774778
-0.00760422
-0.00742025
-0.00719602
-0.00693207
-0.00662937
-0.00628944
-0.0059143
-0.00550644
-0.00506881
-0.00460468
-0.00411752
-0.00361092
-0.00308843
-0.00255332
-0.0020085
-0.00145622
-0.000897937
-0.000334001
0.000236522
0.000816134
0.00140914
0.0020219
0.00266308
0.00334381
0.00407796
0.00488218
0.0057761
0.00678226
0.00792616
0.00923607
0.0107428
0.0124795
0.0144809
0.016783
0.0194223
0.0224346
0.0258542
0.0297124
0.0340357
0.0388444
0.04415
0.0499531
0.0562403
0.0629813
0.0701262
0.0776018
0.0853096
0.0931239
0.100891
0.108433
0.115549
0.122026
0.12765
0.132223
0.135577
0.137593
0.138215
0.137458
0.135441
0.132336
0.127875
0.121836
0.000820916
-0.00190727
-0.00389086
-0.00534274
-0.00651381
-0.00743892
-0.00814914
-0.00868639
-0.00908653
-0.00937774
-0.00958191
-0.00971536
-0.00978965
-0.00981255
-0.00978895
-0.00972168
-0.00961223
-0.00946136
-0.00926951
-0.00903718
-0.00876513
-0.00845459
-0.00810735
-0.00772575
-0.00731271
-0.00687168
-0.00640655
-0.00592156
-0.00542116
-0.00490989
-0.00439218
-0.00387223
-0.00335371
-0.00283965
-0.00233214
-0.0018321
-0.00133904
-0.000850798
-0.000363263
0.000129861
0.00063731
0.00117048
0.00174361
0.00237396
0.00308189
0.00389094
0.00482775
0.00592203
0.00720631
0.00871566
0.0104873
0.0125599
0.0149733
0.0177672
0.0209803
0.0246492
0.0288066
0.0334796
0.0386878
0.0444405
0.050734
0.057548
0.0648427
0.0725545
0.0805929
0.0888372
0.0971347
0.105301
0.113124
0.12037
0.126793
0.132158
0.136254
0.138918
0.140053
0.139643
0.137794
0.134677
0.129996
0.123515
-0.00125924
-0.00416767
-0.00626806
-0.00778748
-0.00899594
-0.00993299
-0.0106343
-0.0111467
-0.0115104
-0.0117567
-0.01191
-0.0119881
-0.0120039
-0.0119659
-0.0118794
-0.0117479
-0.0115732
-0.0113566
-0.0110989
-0.0108014
-0.0104654
-0.0100929
-0.00968654
-0.00924948
-0.00878557
-0.00829915
-0.00779505
-0.00727844
-0.00675468
-0.00622918
-0.00570722
-0.00519376
-0.00469321
-0.00420921
-0.00374441
-0.00330018
-0.00287637
-0.00247106
-0.00208023
-0.00169759
-0.00131423
-0.000918494
-0.0004957
-2.8025e-05
0.000505623
0.00112966
0.00187182
0.00276307
0.00383745
0.0051318
0.0066854
0.0085395
0.0107367
0.0133201
0.0163326
0.0198155
0.0238071
0.0283412
0.0334449
0.0391361
0.0454207
0.0522893
0.059713
0.0676394
0.0759881
0.0846465
0.0934663
0.102262
0.110812
0.118864
0.126145
0.13238
0.13731
0.140722
0.14247
0.142498
0.140888
0.137806
0.13292
0.125982
-0.00377767
-0.00688095
-0.00910387
-0.0106885
-0.0119258
-0.0128611
-0.0135355
-0.0140022
-0.0143064
-0.0144837
-0.0145611
-0.014559
-0.0144914
-0.014368
-0.014195
-0.0139764
-0.0137144
-0.013411
-0.0130676
-0.0126861
-0.0122684
-0.0118173
-0.0113363
-0.0108293
-0.0103011
-0.00975675
-0.00920205
-0.00864298
-0.0080857
-0.0075364
-0.00700109
-0.00648537
-0.00599424
-0.00553186
-0.00510127
-0.00470417
-0.00434064
-0.00400886
-0.00370481
-0.00342209
-0.00315157
-0.00288125
-0.00259598
-0.00227736
-0.00190359
-0.00144942
-0.000886127
-0.000181592
0.000699556
0.00179572
0.003148
0.00479978
0.00679619
0.0091834
0.0120078
0.015315
0.0191483
0.0235475
0.0285468
0.0341724
0.0404397
0.0473498
0.0548857
0.0630071
0.0716458
0.0807001
0.0900295
0.0994516
0.10874
0.117629
0.12582
0.132997
0.138855
0.143121
0.145592
0.146158
0.14487
0.141878
0.13681
0.129399
-0.00677522
-0.0100944
-0.0124479
-0.0140943
-0.0153485
-0.0162629
-0.0168859
-0.0172786
-0.0174927
-0.017569
-0.0175386
-0.0174245
-0.0172427
-0.0170043
-0.0167165
-0.0163838
-0.0160094
-0.0155956
-0.0151445
-0.0146585
-0.0141403
-0.0135934
-0.0130218
-0.0124303
-0.0118243
-0.0112099
-0.0105933
-0.00998139
-0.00938094
-0.00879876
-0.00824143
-0.00771506
-0.00722508
-0.00677599
-0.00637111
-0.0060123
-0.00569971
-0.00543149
-0.00520353
-0.00500919
-0.00483903
-0.00468063
-0.00451835
-0.00433317
-0.0041026
-0.00380057
-0.00339743
-0.00286002
-0.00215177
-0.00123289
-6.06932e-05
0.00141008
0.00322674
0.00543807
0.00809356
0.0112425
0.0149327
0.0192094
0.024113
0.0296776
0.0359273
0.0428739
0.0505119
0.0588143
0.0677262
0.0771591
0.0869841
0.097026
0.10706
0.116809
0.125955
0.134145
0.141023
0.146253
0.149564
0.150783
0.149912
0.147078
0.141855
0.133959
-0.0102999
-0.0138642
-0.0163593
-0.0180618
-0.0193155
-0.0201824
-0.0207204
-0.0210009
-0.0210846
-0.0210189
-0.0208399
-0.0205744
-0.0202409
-0.0198521
-0.0194164
-0.0189391
-0.018424
-0.017874
-0.0172917
-0.0166798
-0.0160419
-0.0153817
-0.0147039
-0.0140139
-0.0133177
-0.0126218
-0.0119332
-0.0112591
-0.0106069
-0.00998376
-0.00939671
-0.00885216
-0.00835579
-0.00791226
-0.00752498
-0.00719584
-0.0069249
-0.00671015
-0.00654722
-0.00642915
-0.00634609
-0.00628512
-0.00623003
-0.00616118
-0.00605534
-0.00588565
-0.00562159
-0.00522901
-0.00467023
-0.00390425
-0.00288693
-0.00157141
9.1549e-05
0.00215296
0.004665
0.00768016
0.0112502
0.015425
0.0202508
0.0257683
0.0320102
0.038998
0.0467378
0.0552156
0.064391
0.0741907
0.0844998
0.095155
0.105937
0.116567
0.126709
0.135979
0.143969
0.15028
0.15456
0.156559
0.156217
0.15362
0.148279
0.139885
-0.0144103
-0.01826
-0.0209103
-0.0226597
-0.0238875
-0.024669
-0.0250758
-0.0251932
-0.0250936
-0.0248332
-0.024455
-0.0239899
-0.0234598
-0.0228793
-0.0222579
-0.0216019
-0.0209155
-0.0202019
-0.019464
-0.0187049
-0.0179283
-0.0171382
-0.0163399
-0.0155388
-0.0147413
-0.0139543
-0.0131852
-0.0124413
-0.0117304
-0.0110599
-0.0104369
-0.00986795
-0.00935881
-0.00891412
-0.0085372
-0.00822976
-0.00799164
-0.00782051
-0.00771164
-0.00765759
-0.00764802
-0.00766943
-0.007705
-0.00773437
-0.0077336
-0.00767501
-0.00752723
-0.00725515
-0.00682008
-0.00617986
-0.00528909
-0.00409943
-0.00255999
-0.000617752
0.00178177
0.00469387
0.0081737
0.0122752
0.0170496
0.0225439
0.0287982
0.0358431
0.0436956
0.0523546
0.0617946
0.0719582
0.0827474
0.094014
0.10555
0.11708
0.128259
0.138676
0.147875
0.155389
0.16078
0.163703
0.164021
0.16176
0.156345
0.147441
-0.0191803
-0.02337
-0.0261921
-0.0279722
-0.0291362
-0.0297789
-0.0299912
-0.0298775
-0.0295258
-0.0290042
-0.0283637
-0.0276411
-0.0268617
-0.0260421
-0.0251932
-0.0243215
-0.0234315
-0.0225264
-0.0216089
-0.020682
-0.0197492
-0.0188147
-0.0178834
-0.0169609
-0.0160536
-0.0151684
-0.0143125
-0.0134937
-0.0127194
-0.0119971
-0.0113339
-0.0107362
-0.0102095
-0.00975838
-0.00938579
-0.00909312
-0.00887983
-0.00874312
-0.00867777
-0.00867578
-0.0087262
-0.00881489
-0.00892431
-0.00903339
-0.0091174
-0.00914787
-0.00909254
-0.00891539
-0.00857675
-0.00803337
-0.00723866
-0.00614293
-0.00469376
-0.00283637
-0.000514195
0.00233053
0.00575594
0.00981958
0.0145772
0.020081
0.0263781
0.0335073
0.0414957
0.0503547
0.0600733
0.0706109
0.0818878
0.0937743
0.106078
0.118534
0.130794
0.14243
0.152942
0.161794
0.168453
0.17247
0.173603
0.171797
0.166367
0.156936
-0.0247066
-0.0293096
-0.0323218
-0.0341052
-0.0351486
-0.0355762
-0.0355069
-0.0350716
-0.0343791
-0.0335126
-0.0325332
-0.0314844
-0.030395
-0.0292836
-0.0281615
-0.0270355
-0.0259093
-0.0247854
-0.0236659
-0.0225529
-0.0214492
-0.0203585
-0.0192851
-0.0182342
-0.0172117
-0.0162243
-0.0152789
-0.0143828
-0.0135433
-0.0127675
-0.0120622
-0.0114335
-0.0108866
-0.0104255
-0.0100528
-0.0097693
-0.00957401
-0.00946354
-0.00943201
-0.00947078
-0.00956821
-0.00970943
-0.00987617
-0.0100466
-0.0101951
-0.0102924
-0.0103054
-0.0101973
-0.00992716
-0.00945089
-0.00872069
-0.00768562
-0.00629179
-0.00448278
-0.00220009
0.000616292
0.00402722
0.00809352
0.0128749
0.0184286
0.0248078
0.0320587
0.0402183
0.0493093
0.0593351
0.0702721
0.0820598
0.0945895
0.107689
0.121109
0.134508
0.147445
0.159387
0.16973
0.177843
0.183152
0.185289
0.184088
0.178717
0.168738
-0.0311193
-0.0362338
-0.0394539
-0.0411931
-0.0420298
-0.0421333
-0.0416628
-0.040786
-0.0396389
-0.0383237
-0.0369134
-0.0354583
-0.0339907
-0.0325301
-0.0310875
-0.0296682
-0.0282746
-0.0269071
-0.0255663
-0.0242527
-0.0229676
-0.0217133
-0.020493
-0.019311
-0.0181724
-0.0170829
-0.0160488
-0.0150768
-0.0141735
-0.0133456
-0.0125992
-0.0119399
-0.0113723
-0.0108997
-0.0105242
-0.0102461
-0.0100634
-0.00997228
-0.00996602
-0.0100353
-0.0101676
-0.0103475
-0.0105557
-0.0107697
-0.010963
-0.0111056
-0.0111634
-0.0110986
-0.0108695
-0.0104309
-0.00973383
-0.00872611
-0.00735247
-0.00555486
-0.00327294
-0.000444504
0.00299388
0.00710613
0.0119558
0.0176046
0.0241116
0.0315301
0.039906
0.0492732
0.0596491
0.0710268
0.0833663
0.0965813
0.110524
0.124966
0.13958
0.153924
0.167438
0.179455
0.189243
0.196088
0.199467
0.199063
0.193847
0.183292
-0.0385992
-0.0443556
-0.0477949
-0.0494088
-0.0499078
-0.0495303
-0.0484948
-0.0470182
-0.0452722
-0.0433811
-0.0414312
-0.039479
-0.0375587
-0.035689
-0.0338785
-0.0321294
-0.0304407
-0.0288097
-0.0272338
-0.0257107
-0.0242393
-0.0228198
-0.0214536
-0.0201432
-0.0188924
-0.0177057
-0.0165883
-0.0155458
-0.0145841
-0.0137088
-0.0129255
-0.0122387
-0.0116524
-0.0111693
-0.0107905
-0.0105155
-0.0103418
-0.0102646
-0.0102765
-0.0103673
-0.0105238
-0.0107295
-0.0109646
-0.0112056
-0.0114253
-0.0115927
-0.0116729
-0.0116272
-0.011413
-0.0109839
-0.0102899
-0.00927769
-0.00789042
-0.0060685
-0.00374972
-0.000869673
0.00263764
0.00683926
0.0118024
0.0175936
0.0242772
0.0319139
0.0405581
0.0502549
0.0610354
0.0729101
0.0858598
0.0998228
0.114679
0.130226
0.146161
0.16205
0.177315
0.191235
0.202975
0.211663
0.216593
0.217246
0.212319
0.201143
-0.0474053
-0.0539753
-0.0576261
-0.0589762
-0.0589363
-0.0578523
-0.0560272
-0.053744
-0.0512179
-0.0485982
-0.0459836
-0.0434343
-0.0409833
-0.0386452
-0.036423
-0.034313
-0.0323085
-0.0304014
-0.0285843
-0.0268507
-0.025196
-0.023617
-0.0221126
-0.020683
-0.01933
-0.0180565
-0.016866
-0.0157631
-0.0147522
-0.013838
-0.013025
-0.0123169
-0.0117167
-0.0112262
-0.0108457
-0.0105739
-0.0104073
-0.0103404
-0.0103649
-0.0104698
-0.0106411
-0.0108616
-0.0111106
-0.0113637
-0.011593
-0.0117667
-0.0118489
-0.0118002
-0.011577
-0.0111318
-0.0104136
-0.0093677
-0.00793596
-0.0060571
-0.00366697
-0.000698954
0.00291567
0.00724715
0.0123666
0.0183454
0.0252536
0.0331593
0.042126
0.0522102
0.0634572
0.0758957
0.0895287
0.104321
0.120185
0.136951
0.154347
0.17196
0.189209
0.205328
0.219377
0.230315
0.23721
0.23928
0.234838
0.222985
-0.0579206
-0.0655256
-0.0693349
-0.070184
-0.0692957
-0.0671809
-0.0642608
-0.0609035
-0.057374
-0.0538466
-0.0504279
-0.0471764
-0.0441181
-0.0412579
-0.0385886
-0.0360968
-0.0337664
-0.0315817
-0.029528
-0.0275931
-0.0257674
-0.0240436
-0.0224169
-0.0208846
-0.0194461
-0.018102
-0.0168542
-0.0157054
-0.0146589
-0.013718
-0.012886
-0.0121657
-0.0115589
-0.0110666
-0.0106881
-0.0104213
-0.0102619
-0.0102034
-0.0102367
-0.0103502
-0.0105289
-0.0107549
-0.0110067
-0.0112592
-0.0114837
-0.0116476
-0.0117143
-0.0116435
-0.0113906
-0.0109072
-0.0101413
-0.00903691
-0.0075344
-0.00557087
-0.00308019
6.617e-06
0.0037611
0.00825695
0.0135695
0.0197751
0.0269504
0.0351711
0.0445106
0.0550378
0.0668138
0.0798866
0.094284
0.110002
0.126987
0.145114
0.16415
0.183719
0.203252
0.221955
0.238789
0.252524
0.261962
0.265973
0.262323
0.249726
-0.0707333
-0.0796445
-0.0834596
-0.0834013
-0.0811874
-0.0775769
-0.0731508
-0.068379
-0.0635785
-0.0589407
-0.0545705
-0.0505142
-0.046781
-0.0433583
-0.0402218
-0.0373429
-0.0346924
-0.0322432
-0.0299715
-0.0278574
-0.0258846
-0.0240407
-0.0223168
-0.0207065
-0.0192061
-0.017814
-0.0165298
-0.0153547
-0.0142901
-0.0133383
-0.0125011
-0.0117803
-0.0111768
-0.0106904
-0.0103198
-0.0100618
-0.00991133
-0.00986115
-0.00990148
-0.0100198
-0.0102005
-0.0104249
-0.0106709
-0.0109127
-0.0111208
-0.0112621
-0.0112991
-0.0111908
-0.0108918
-0.010353
-0.00952099
-0.00833874
-0.0067453
-0.00467604
-0.00206286
0.00116568
0.00508408
0.00976967
0.0153023
0.0217639
0.0292379
0.037809
0.0475613
0.0585776
0.0709364
0.0847082
0.0999488
0.11669
0.134921
0.15457
0.17546
0.19727
0.219469
0.241257
0.26151
0.278799
0.291609
0.298351
0.296
0.282617
-0.0867837
-0.0972928
-0.100749
-0.0990865
-0.0948126
-0.0890466
-0.0825702
-0.0759632
-0.0695825
-0.0636184
-0.0581539
-0.0532055
-0.0487512
-0.044749
-0.0411491
-0.037901
-0.0349574
-0.0322765
-0.0298226
-0.0275662
-0.0254834
-0.0235559
-0.0217695
-0.0201141
-0.0185828
-0.0171712
-0.0158769
-0.014699
-0.0136378
-0.0126939
-0.011868
-0.0111609
-0.0105725
-0.0101018
-0.00974652
-0.00950281
-0.00936488
-0.00932477
-0.00937202
-0.00949347
-0.00967297
-0.0098912
-0.0101254
-0.0103494
-0.010533
-0.0106425
-0.0106399
-0.0104835
-0.0101272
-0.00952109
-0.0086109
-0.00733845
-0.0056415
-0.00345381
-0.000705312
0.00267786
0.00677324
0.0116619
0.0174285
0.024161
0.0319502
0.0408904
0.0510779
0.062611
0.0755881
0.0901053
0.106252
0.124101
0.143696
0.165031
0.188007
0.212386
0.237712
0.26322
0.287735
0.309632
0.327025
0.337725
0.337562
0.323466
-0.107647
-0.119946
-0.122234
-0.117778
-0.110322
-0.101479
-0.0922522
-0.0833111
-0.0750164
-0.0675179
-0.060843
-0.054951
-0.049768
-0.0452075
-0.0411832
-0.0376151
-0.034433
-0.0315767
-0.0289966
-0.0266519
-0.0245106
-0.0225475
-0.0207433
-0.0190838
-0.017559
-0.0161619
-0.0148881
-0.0137349
-0.0127012
-0.0117865
-0.0109905
-0.0103129
-0.00975296
-0.00930894
-0.00897792
-0.0087554
-0.00863504
-0.00860831
-0.00866426
-0.00878925
-0.00896667
-0.00917676
-0.00939638
-0.00959882
-0.00975364
-0.00982657
-0.00977933
-0.00956957
-0.00915078
-0.00847228
-0.00747915
-0.00611222
-0.00430809
-0.00199908
0.000886728
0.00442552
0.0086978
0.0137884
0.0197869
0.0267871
0.0348881
0.0441942
0.0548148
0.0668654
0.0804668
0.0957442
0.112825
0.131833
0.152879
0.176039
0.201321
0.22861
0.257581
0.287576
0.317443
0.345403
0.369168
0.385773
0.389408
0.375067
-0.136115
-0.149906
-0.14929
-0.140023
-0.127706
-0.114536
-0.101697
-0.0898734
-0.0793458
-0.070154
-0.0622159
-0.0553948
-0.0495376
-0.0444953
-0.0401333
-0.0363349
-0.0330021
-0.0300541
-0.0274257
-0.0250647
-0.0229304
-0.020991
-0.0192225
-0.017607
-0.0161315
-0.014787
-0.0135673
-0.0124685
-0.0114883
-0.0106253
-0.00987859
-0.00924725
-0.00872991
-0.00832439
-0.00802733
-0.00783384
-0.00773722
-0.00772861
-0.00779677
-0.00792774
-0.00810469
-0.00830758
-0.00851305
-0.00869416
-0.00882026
-0.00885683
-0.00876534
-0.00850316
-0.00802345
-0.00727506
-0.00620253
-0.00474598
-0.00284109
-0.000418877
0.00259407
0.00627606
0.0107103
0.0159852
0.0221948
0.0294392
0.0378252
0.0474673
0.0584888
0.071023
0.0852147
0.101221
0.119214
0.139374
0.161891
0.186948
0.214693
0.245187
0.278318
0.313652
0.350202
0.386177
0.418933
0.444573
0.455016
0.442032
-0.177399
-0.190769
-0.183583
-0.16614
-0.146531
-0.127433
-0.110017
-0.0947939
-0.0818133
-0.070891
-0.0617575
-0.0541302
-0.0477457
-0.042374
-0.0378219
-0.0339307
-0.0305725
-0.0276453
-0.0250688
-0.0227801
-0.0207309
-0.018884
-0.0172114
-0.0156926
-0.0143126
-0.0130608
-0.0119302
-0.0109161
-0.0100155
-0.00922681
-0.00854869
-0.00798001
-0.0075192
-0.00716394
-0.00691073
-0.00675459
-0.0066887
-0.00670416
-0.00678962
-0.00693112
-0.00711175
-0.00731148
-0.00750691
-0.0076711
-0.00777339
-0.00777925