/*--------------------------------*- C++ -*----------------------------------*\
  =========                 |
  \\      /  F ield         | OpenFOAM: The Open Source CFD Toolbox
   \\    /   O peration     | Website:  https://openfoam.org
    \\  /    A nd           | Version:  7
     \\/     M anipulation  |
\*---------------------------------------------------------------------------*/
FoamFile
{
    version     2.0;
    format      ascii;
    class       surfaceScalarField;
    location    "0.5";
    object      phi;
}
// * * * * * * * * * * * * * * * * * * * * * * * * * * * * * * * * * * * * * //

dimensions      [0 3 -1 0 0 0 0];

internalField   nonuniform List<scalar> 
6280
(
9.33706e-10
-9.39236e-10
2.07176e-09
-1.13801e-09
2.46035e-09
-3.8857e-10
1.73239e-09
7.27953e-10
-1.8056e-10
1.91293e-09
-3.20745e-09
3.02689e-09
-7.21625e-09
4.00881e-09
-1.20525e-08
4.83626e-09
-1.75628e-08
5.5103e-09
-2.36064e-08
6.04359e-09
-3.00606e-08
6.4542e-09
-3.68228e-08
6.76218e-09
-4.38103e-08
6.98752e-09
-5.09592e-08
7.14891e-09
-5.82224e-08
7.26313e-09
-6.55671e-08
7.34472e-09
-7.29731e-08
7.40595e-09
-8.04299e-08
7.45688e-09
-8.79356e-08
7.5056e-09
-9.5494e-08
7.55844e-09
-1.03114e-07
7.62023e-09
-1.10809e-07
7.69457e-09
-1.18593e-07
7.784e-09
-1.26483e-07
7.89023e-09
-1.34497e-07
8.01428e-09
-1.42654e-07
8.15659e-09
-1.50971e-07
8.31708e-09
-1.59466e-07
8.4952e-09
-1.68156e-07
8.68994e-09
-1.77056e-07
8.89983e-09
-1.86179e-07
9.1229e-09
-1.95536e-07
9.35662e-09
-2.05133e-07
9.59784e-09
-2.14976e-07
9.84275e-09
-2.25063e-07
1.00868e-08
-2.35387e-07
1.03244e-08
-2.45937e-07
1.05495e-08
-2.56692e-07
1.07545e-08
-2.67623e-07
1.09312e-08
-2.78693e-07
1.107e-08
-2.89853e-07
1.11603e-08
-3.01044e-07
1.11903e-08
-3.12191e-07
1.1147e-08
-3.23207e-07
1.10166e-08
-3.33991e-07
1.0784e-08
-3.44425e-07
1.04337e-08
-3.54375e-07
9.94955e-09
-3.6369e-07
9.31556e-09
-3.72206e-07
8.516e-09
-3.79742e-07
7.53622e-09
-3.86106e-07
6.36332e-09
-3.91093e-07
4.98701e-09
-3.94493e-07
3.40061e-09
-3.96095e-07
1.60213e-09
-3.95691e-07
-4.04891e-10
-3.93081e-07
-2.60934e-09
-3.88088e-07
-4.99266e-09
-3.80562e-07
-7.52683e-09
-3.70388e-07
-1.0174e-08
-3.57501e-07
-1.28861e-08
-3.41897e-07
-1.56047e-08
-3.23635e-07
-1.82618e-08
-3.02854e-07
-2.07808e-08
-2.79775e-07
-2.30789e-08
-2.54705e-07
-2.50699e-08
-2.28038e-07
-2.66672e-08
-2.00249e-07
-2.77886e-08
-1.71889e-07
-2.836e-08
-1.43569e-07
-2.83201e-08
-1.15944e-07
-2.76244e-08
-8.96961e-08
-2.62482e-08
-6.55068e-08
-2.41892e-08
-4.4038e-08
-2.14688e-08
-2.59043e-08
-1.81338e-08
-1.1643e-08
-1.42612e-08
-1.66913e-09
-9.97391e-09
3.8128e-09
-5.48192e-09
4.97715e-09
-1.16432e-09
2.77441e-09
2.20281e-09
2.77443e-09
1.15737e-09
-2.09657e-09
1.79574e-09
-1.77636e-09
5.06175e-10
9.00941e-10
-3.35969e-09
4.59378e-09
-1.00031e-08
8.55631e-09
-1.93403e-08
1.23641e-08
-3.11267e-08
1.57952e-08
-4.50433e-08
1.87529e-08
-6.075e-08
2.1217e-08
-7.79175e-08
2.3211e-08
-9.62465e-08
2.47832e-08
-1.15478e-07
2.59934e-08
-1.35395e-07
2.69048e-08
-1.55825e-07
2.75792e-08
-1.76636e-07
2.80737e-08
-1.9773e-07
2.84391e-08
-2.19043e-07
2.87191e-08
-2.40537e-07
2.89504e-08
-2.62194e-07
2.9163e-08
-2.84017e-07
2.93811e-08
-3.0602e-07
2.96231e-08
-3.28228e-07
2.99032e-08
-3.50676e-07
3.02318e-08
-3.73401e-07
3.06156e-08
-3.96446e-07
3.1059e-08
-4.19853e-07
3.15639e-08
-4.43666e-07
3.213e-08
-4.67926e-07
3.2755e-08
-4.92671e-07
3.34348e-08
-5.17934e-07
3.41634e-08
-5.43744e-07
3.49327e-08
-5.7012e-07
3.57324e-08
-5.97072e-07
3.65498e-08
-6.24599e-07
3.73698e-08
-6.52686e-07
3.81742e-08
-6.81303e-07
3.89419e-08
-7.10402e-07
3.96484e-08
-7.39913e-07
4.02656e-08
-7.69744e-07
4.07619e-08
-7.99775e-07
4.11017e-08
-8.29861e-07
4.12457e-08
-8.59821e-07
4.11507e-08
-8.89444e-07
4.07702e-08
-9.18482e-07
4.00542e-08
-9.46648e-07
3.89504e-08
-9.73619e-07
3.74047e-08
-9.99032e-07
3.53623e-08
-1.02249e-06
3.27695e-08
-1.04354e-06
2.95751e-08
-1.06174e-06
2.57326e-08
-1.07658e-06
2.12032e-08
-1.08755e-06
1.59581e-08
-1.09413e-06
9.98232e-09
-1.09581e-06
3.27792e-09
-1.09208e-06
-4.13236e-09
-1.08249e-06
-1.22013e-08
-1.06663e-06
-2.08539e-08
-1.04417e-06
-2.99844e-08
-1.01489e-06
-3.94542e-08
-9.78686e-07
-4.90911e-08
-9.35601e-07
-5.86898e-08
-8.85849e-07
-6.80142e-08
-8.29827e-07
-7.68025e-08
-7.68133e-07
-8.47737e-08
-7.01566e-07
-9.16369e-08
-6.3113e-07
-9.71032e-08
-5.5802e-07
-1.00899e-07
-4.83602e-07
-1.02778e-07
-4.09381e-07
-1.02541e-07
-3.36963e-07
-1.00042e-07
-2.68002e-07
-9.52095e-08
-2.04144e-07
-8.80473e-08
-1.46962e-07
-7.86511e-08
-9.78789e-08
-6.72169e-08
-5.80772e-08
-5.4063e-08
-2.83723e-08
-3.96788e-08
-9.02703e-09
-2.48272e-08
5.36767e-10
-1.07282e-08
2.20144e-09
5.37974e-10
4.97593e-09
4.21272e-10
-2.51782e-09
-9.01486e-10
-4.53634e-10
-5.34486e-09
5.34429e-09
-1.35784e-08
1.28273e-08
-2.58051e-08
2.07831e-08
-4.19096e-08
2.84686e-08
-6.15764e-08
3.5462e-08
-8.43839e-08
4.15604e-08
-1.0987e-07
4.67035e-08
-1.37579e-07
5.09192e-08
-1.67084e-07
5.42881e-08
-1.98009e-07
5.69189e-08
-2.30035e-07
5.89312e-08
-2.62902e-07
6.04452e-08
-2.96402e-07
6.15743e-08
-3.30384e-07
6.24209e-08
-3.6474e-07
6.30747e-08
-3.99401e-07
6.36119e-08
-4.34334e-07
6.40957e-08
-4.6953e-07
6.4577e-08
-5.05003e-07
6.50962e-08
-5.40784e-07
6.5684e-08
-5.76915e-07
6.63628e-08
-6.13447e-07
6.71482e-08
-6.50438e-07
6.80496e-08
-6.87945e-07
6.90711e-08
-7.26027e-07
7.02123e-08
-7.6474e-07
7.14678e-08
-8.04134e-07
7.28284e-08
-8.44251e-07
7.42802e-08
-8.85123e-07
7.5805e-08
-9.2677e-07
7.73795e-08
-9.69196e-07
7.89754e-08
-1.01238e-06
8.05588e-08
-1.0563e-06
8.20899e-08
-1.10088e-06
8.35221e-08
-1.14604e-06
8.48024e-08
-1.19164e-06
8.58703e-08
-1.23754e-06
8.6658e-08
-1.28352e-06
8.70901e-08
-1.32936e-06
8.70837e-08
-1.37476e-06
8.65492e-08
-1.41938e-06
8.53899e-08
-1.46283e-06
8.3504e-08
-1.50467e-06
8.07856e-08
-1.54439e-06
7.71263e-08
-1.58144e-06
7.24184e-08
-1.61523e-06
6.6557e-08
-1.6451e-06
5.94448e-08
-1.67036e-06
5.09957e-08
-1.6903e-06
4.11405e-08
-1.70418e-06
2.98323e-08
-1.71125e-06
1.7053e-08
-1.71079e-06
2.8201e-09
-1.70211e-06
-1.28069e-08
-1.6846e-06
-2.97191e-08
-1.6577e-06
-4.77524e-08
-1.621e-06
-6.66827e-08
-1.57423e-06
-8.62223e-08
-1.5173e-06
-1.06019e-07
-1.45034e-06
-1.25656e-07
-1.37369e-06
-1.44661e-07
-1.28798e-06
-1.62512e-07
-1.1941e-06
-1.78652e-07
-1.09323e-06
-1.92508e-07
-9.86822e-07
-2.03512e-07
-8.76596e-07
-2.11125e-07
-7.64506e-07
-2.14868e-07
-6.52698e-07
-2.14349e-07
-5.43452e-07
-2.09289e-07
-4.3911e-07
-1.99551e-07
-3.41995e-07
-1.85162e-07
-2.54311e-07
-1.66335e-07
-1.78032e-07
-1.43496e-07
-1.14769e-07
-1.17327e-07
-6.56035e-08
-8.88438e-08
-3.08863e-08
-5.95443e-08
-9.97124e-09
-3.16433e-08
-9.23396e-10
-8.5099e-09
4.05258e-09
-7.47489e-10
-1.77035e-09
-4.85011e-09
3.64896e-09
-1.33862e-08
1.38804e-08
-2.68592e-08
2.63003e-08
-4.53646e-08
3.92884e-08
-6.87008e-08
5.18049e-08
-9.64704e-08
6.32315e-08
-1.28165e-07
7.32546e-08
-1.6323e-07
8.17684e-08
-2.01113e-07
8.88031e-08
-2.41299e-07
9.44734e-08
-2.83322e-07
9.8942e-08
-3.26784e-07
1.02393e-07
-3.71355e-07
1.05016e-07
-4.1677e-07
1.0699e-07
-4.62828e-07
1.0848e-07
-5.09386e-07
1.09632e-07
-5.56347e-07
1.10573e-07
-6.03657e-07
1.11406e-07
-6.51297e-07
1.12217e-07
-6.99275e-07
1.13075e-07
-7.47622e-07
1.14031e-07
-7.96382e-07
1.15123e-07
-8.45615e-07
1.1638e-07
-8.95382e-07
1.17817e-07
-9.45752e-07
1.19441e-07
-9.9679e-07
1.21251e-07
-1.04856e-06
1.23237e-07
-1.10111e-06
1.25382e-07
-1.1545e-06
1.27663e-07
-1.20874e-06
1.30046e-07
-1.26385e-06
1.32491e-07
-1.31982e-06
1.34948e-07
-1.37662e-06
1.37357e-07
-1.43418e-06
1.3965e-07
-1.4924e-06
1.41747e-07
-1.55116e-06
1.43556e-07
-1.61026e-06
1.44976e-07
-1.6695e-06
1.45891e-07
-1.72858e-06
1.46176e-07
-1.78719e-06
1.45693e-07
-1.84494e-06
1.44295e-07
-1.90137e-06
1.41823e-07
-1.95598e-06
1.38112e-07
-2.00819e-06
1.32993e-07
-2.05735e-06
1.26294e-07
-2.10278e-06
1.17845e-07
-2.14371e-06
1.07485e-07
-2.17933e-06
9.50661e-08
-2.20879e-06
8.04611e-08
-2.23123e-06
6.35717e-08
-2.24573e-06
4.43376e-08
-2.25142e-06
2.27462e-08
-2.24745e-06
-1.15717e-09
-2.23299e-06
-2.72603e-08
-2.20734e-06
-5.5371e-08
-2.16988e-06
-8.52118e-08
-2.12015e-06
-1.16411e-07
-2.05788e-06
-1.48497e-07
-1.983e-06
-1.809e-07
-1.8957e-06
-2.12954e-07
-1.79646e-06
-2.43901e-07
-1.68606e-06
-2.72913e-07
-1.5656e-06
-2.99109e-07
-1.43653e-06
-3.2158e-07
-1.30061e-06
-3.39429e-07
-1.15993e-06
-3.51804e-07
-1.01686e-06
-3.57946e-07
-8.73971e-07
-3.57233e-07
-7.34036e-07
-3.49224e-07
-5.99882e-07
-3.33705e-07
-4.74319e-07
-3.10725e-07
-3.60013e-07
-2.80641e-07
-2.59352e-07
-2.44156e-07
-1.74299e-07
-2.0238e-07
-1.06218e-07
-1.56926e-07
-5.56903e-08
-1.10072e-07
-2.23373e-08
-6.49962e-08
-4.66852e-09
-2.61786e-08
-6.15926e-10
-2.09054e-09
3.20165e-10
-9.43462e-09
1.09931e-08
-2.26539e-08
2.70997e-08
-4.1966e-08
4.56125e-08
-6.72701e-08
6.45925e-08
-9.8223e-08
8.27578e-08
-1.34317e-07
9.93253e-08
-1.74949e-07
1.13887e-07
-2.19481e-07
1.26301e-07
-2.67282e-07
1.36604e-07
-3.17761e-07
1.44952e-07
-3.70385e-07
1.51566e-07
-4.24694e-07
1.56703e-07
-4.80305e-07
1.60626e-07
-5.36905e-07
1.6359e-07
-5.94255e-07
1.6583e-07
-6.5218e-07
1.67557e-07
-7.1056e-07
1.68952e-07
-7.69321e-07
1.70168e-07
-8.28434e-07
1.7133e-07
-8.87898e-07
1.72539e-07
-9.4774e-07
1.73873e-07
-1.00801e-06
1.75388e-07
-1.06875e-06
1.77126e-07
-1.13004e-06
1.79111e-07
-1.19196e-06
1.81352e-07
-1.25455e-06
1.83847e-07
-1.3179e-06
1.86581e-07
-1.38204e-06
1.89528e-07
-1.44703e-06
1.9265e-07
-1.51288e-06
1.95896e-07
-1.57959e-06
1.99203e-07
-1.64714e-06
2.02496e-07
-1.71547e-06
2.05683e-07
-1.78448e-06
2.08662e-07
-1.85404e-06
2.1131e-07
-1.92398e-06
2.13493e-07
-1.99406e-06
2.15057e-07
-2.064e-06
2.15835e-07
-2.13347e-06
2.15641e-07
-2.20205e-06
2.14276e-07
-2.26928e-06
2.11526e-07
-2.33462e-06
2.07164e-07
-2.39747e-06
2.00957e-07
-2.45714e-06
1.92665e-07
-2.51289e-06
1.82048e-07
-2.56392e-06
1.68874e-07
-2.60936e-06
1.52922e-07
-2.64829e-06
1.33994e-07
-2.67975e-06
1.11924e-07
-2.70277e-06
8.65901e-08
-2.71635e-06
5.79242e-08
-2.71954e-06
2.59274e-08
-2.71138e-06
-9.31704e-09
-2.69101e-06
-4.76308e-08
-2.65765e-06
-8.87265e-08
-2.61067e-06
-1.32196e-07
-2.54957e-06
-1.77504e-07
-2.47409e-06
-2.23977e-07
-2.38419e-06
-2.70806e-07
-2.28009e-06
-3.17049e-07
-2.16235e-06
-3.61645e-07
-2.03183e-06
-4.03429e-07
-1.88978e-06
-4.41163e-07
-1.73779e-06
-4.73573e-07
-1.57782e-06
-4.99395e-07
-1.4122e-06
-5.17428e-07
-1.24355e-06
-5.26596e-07
-1.07477e-06
-5.26011e-07
-9.08951e-07
-5.1504e-07
-7.49291e-07
-4.93365e-07
-5.98967e-07
-4.61049e-07
-4.6102e-07
-4.18588e-07
-3.38206e-07
-3.66971e-07
-2.32835e-07
-3.0775e-07
-1.46621e-07
-2.4314e-07
-8.05294e-08
-1.76164e-07
-3.46745e-08
-1.10851e-07
-8.30432e-09
-5.25488e-08
-8.92025e-09
-3.49455e-09
3.81471e-09
-1.43123e-08
2.18109e-08
-3.25596e-08
4.53469e-08
-5.80934e-08
7.11462e-08
-9.05515e-08
9.70506e-08
-1.294e-07
1.21606e-07
-1.73988e-07
1.43913e-07
-2.23602e-07
1.63501e-07
-2.77513e-07
1.80211e-07
-3.35013e-07
1.94105e-07
-3.95447e-07
2.05385e-07
-4.58224e-07
2.14344e-07
-5.22835e-07
2.21314e-07
-5.88852e-07
2.26642e-07
-6.55926e-07
2.30665e-07
-7.23788e-07
2.33692e-07
-7.92236e-07
2.36005e-07
-8.6113e-07
2.37846e-07
-9.30382e-07
2.39419e-07
-9.99948e-07
2.40897e-07
-1.06982e-06
2.42413e-07
-1.14002e-06
2.44075e-07
-1.2106e-06
2.45961e-07
-1.2816e-06
2.48125e-07
-1.35309e-06
2.50601e-07
-1.42514e-06
2.53402e-07
-1.49781e-06
2.56523e-07
-1.57117e-06
2.59943e-07
-1.64527e-06
2.63625e-07
-1.72013e-06
2.67513e-07
-1.79577e-06
2.71536e-07
-1.87217e-06
2.75605e-07
-1.94929e-06
2.79615e-07
-2.02705e-06
2.83439e-07
-2.10532e-06
2.86933e-07
-2.18394e-06
2.8993e-07
-2.26269e-06
2.92245e-07
-2.34131e-06
2.9367e-07
-2.41945e-06
2.93977e-07
-2.49672e-06
2.92918e-07
-2.57267e-06
2.90225e-07
-2.64676e-06
2.85616e-07
-2.71839e-06
2.78793e-07
-2.78689e-06
2.6945e-07
-2.8515e-06
2.57277e-07
-2.91141e-06
2.41966e-07
-2.96576e-06
2.2322e-07
-3.0136e-06
2.00765e-07
-3.05396e-06
1.74354e-07
-3.08583e-06
1.43787e-07
-3.10816e-06
1.08922e-07
-3.11992e-06
6.9689e-08
-3.12011e-06
2.61094e-08
-3.10773e-06
-2.16901e-08
-3.0819e-06
-7.34598e-08
-3.04182e-06
-1.28811e-07
-2.98681e-06
-1.87201e-07
-2.9164e-06
-2.47923e-07
-2.83027e-06
-3.10099e-07
-2.7284e-06
-3.72675e-07
-2.61103e-06
-4.34427e-07
-2.47869e-06
-4.93978e-07
-2.33231e-06
-5.49815e-07
-2.17314e-06
-6.00327e-07
-2.00286e-06
-6.43853e-07
-1.82353e-06
-6.78733e-07
-1.63757e-06
-7.03384e-07
-1.44779e-06
-7.16377e-07
-1.25728e-06
-7.16516e-07
-1.06939e-06
-7.02936e-07
-8.87574e-07
-6.75177e-07
-7.15344e-07
-6.3328e-07
-5.56079e-07
-5.77852e-07
-4.12903e-07
-5.10146e-07
-2.88523e-07
-4.3213e-07
-1.85084e-07
-3.46579e-07
-1.04058e-07
-2.5719e-07
-4.6194e-08
-1.68715e-07
-1.15876e-08
-8.71552e-08
-2.05078e-08
-4.90794e-09
8.72265e-09
-1.92964e-08
3.61993e-08
-4.27486e-08
6.87992e-08
-7.47212e-08
1.03119e-07
-1.14547e-07
1.36876e-07
-1.61461e-07
1.6852e-07
-2.14638e-07
1.97091e-07
-2.73233e-07
2.22096e-07
-3.36413e-07
2.43392e-07
-4.03393e-07
2.61084e-07
-4.73449e-07
2.75442e-07
-5.45942e-07
2.86836e-07
-6.20316e-07
2.95689e-07
-6.96109e-07
3.02435e-07
-7.72943e-07
3.07498e-07
-8.50522e-07
3.11271e-07
-9.28624e-07
3.14108e-07
-1.00709e-06
3.16316e-07
-1.08583e-06
3.18157e-07
-1.16478e-06
3.19847e-07
-1.24393e-06
3.21563e-07
-1.3233e-06
3.23438e-07
-1.40291e-06
3.25575e-07
-1.48283e-06
3.28043e-07
-1.56311e-06
3.30884e-07
-1.64383e-06
3.34116e-07
-1.72503e-06
3.3773e-07
-1.80679e-06
3.41698e-07
-1.88913e-06
3.45968e-07
-1.97209e-06
3.50468e-07
-2.05565e-06
3.55102e-07
-2.1398e-06
3.59754e-07
-2.22447e-06
3.64283e-07
-2.30955e-06
3.68525e-07
-2.39491e-06
3.72292e-07
-2.48035e-06
3.75368e-07
-2.56562e-06
3.77516e-07
-2.65042e-06
3.78468e-07
-2.73438e-06
3.77935e-07
-2.81706e-06
3.75603e-07
-2.89797e-06
3.71136e-07
-2.97654e-06
3.64182e-07
-3.05212e-06
3.54371e-07
-3.124e-06
3.41328e-07
-3.19139e-06
3.24671e-07
-3.25346e-06
3.0403e-07
-3.30928e-06
2.79048e-07
-3.35791e-06
2.49396e-07
-3.39835e-06
2.14786e-07
-3.42955e-06
1.74987e-07
-3.45047e-06
1.29841e-07
-3.46006e-06
7.92811e-08
-3.4573e-06
2.33477e-08
-3.4412e-06
-3.77878e-08
-3.41085e-06
-1.03806e-07
-3.36544e-06
-1.74219e-07
-3.30429e-06
-2.48356e-07
-3.22687e-06
-3.25346e-07
-3.13285e-06
-4.04112e-07
-3.02216e-06
-4.83363e-07
-2.89499e-06
-5.616e-07
-2.75184e-06
-6.37131e-07
-2.59356e-06
-7.08095e-07
-2.42139e-06
-7.72499e-07
-2.23696e-06
-8.28276e-07
-2.04234e-06
-8.73351e-07
-1.84001e-06
-9.05722e-07
-1.63282e-06
-9.23562e-07
-1.42402e-06
-9.25322e-07
-1.21711e-06
-9.09845e-07
-1.01581e-06
-8.76476e-07
-8.23914e-07
-8.25174e-07
-6.45161e-07
-7.56605e-07
-4.83076e-07
-6.72231e-07
-3.40822e-07
-5.74385e-07
-2.21061e-07
-4.66339e-07
-1.25866e-07
-3.52386e-07
-5.66912e-08
-2.3789e-07
-1.44814e-08
-1.29365e-07
-3.49892e-08
-6.30683e-09
1.50295e-08
-2.42873e-08
5.41798e-08
-5.30123e-08
9.75242e-08
-9.15204e-08
1.41627e-07
-1.38811e-07
1.84167e-07
-1.93859e-07
2.23568e-07
-2.55638e-07
2.5887e-07
-3.2315e-07
2.89608e-07
-3.95447e-07
3.15688e-07
-4.71652e-07
3.37289e-07
-5.50976e-07
3.54766e-07
-6.32726e-07
3.68586e-07
-7.16308e-07
3.79271e-07
-8.01227e-07
3.87353e-07
-8.87079e-07
3.93351e-07
-9.73552e-07
3.97743e-07
-1.06041e-06
4.00962e-07
-1.14747e-06
4.03383e-07
-1.23464e-06
4.05327e-07
-1.32186e-06
4.0706e-07
-1.40909e-06
4.08795e-07
-1.49635e-06
4.10701e-07
-1.58368e-06
4.12901e-07
-1.67112e-06
4.15482e-07
-1.75873e-06
4.18494e-07
-1.84657e-06
4.21957e-07
-1.9347e-06
4.25861e-07
-2.02317e-06
4.30167e-07
-2.11201e-06
4.3481e-07
-2.20124e-06
4.39696e-07
-2.29084e-06
4.44706e-07
-2.38078e-06
4.49693e-07
-2.47098e-06
4.5448e-07
-2.56132e-06
4.58863e-07
-2.65163e-06
4.62608e-07
-2.74171e-06
4.6545e-07
-2.83129e-06
4.67095e-07
-2.92004e-06
4.67219e-07
-3.00758e-06
4.6547e-07
-3.09345e-06
4.61469e-07
-3.17712e-06
4.54814e-07
-3.25802e-06
4.45082e-07
-3.33549e-06
4.31838e-07
-3.4088e-06
4.14637e-07
-3.47716e-06
3.93035e-07
-3.53973e-06
3.666e-07
-3.5956e-06
3.34919e-07
-3.64382e-06
2.97616e-07
-3.6834e-06
2.54366e-07
-3.71333e-06
2.04909e-07
-3.73256e-06
1.49072e-07
-3.74006e-06
8.67886e-08
-3.73484e-06
1.81188e-08
-3.7159e-06
-5.67281e-08
-3.68233e-06
-1.37372e-07
-3.63331e-06
-2.23239e-07
-3.56812e-06
-3.13543e-07
-3.4862e-06
-4.07268e-07
-3.38716e-06
-5.03155e-07
-3.27083e-06
-5.99694e-07
-3.1373e-06
-6.95128e-07
-2.98697e-06
-7.87464e-07
-2.82056e-06
-8.74497e-07
-2.63921e-06
-9.53853e-07
-2.44444e-06
-1.02305e-06
-2.23823e-06
-1.07956e-06
-2.02301e-06
-1.12094e-06
-1.80166e-06
-1.14491e-06
-1.57748e-06
-1.1495e-06
-1.35413e-06
-1.1332e-06
-1.13553e-06
-1.09507e-06
-9.25792e-07
-1.03491e-06
-7.29021e-07
-9.53376e-07
-5.49199e-07
-8.52053e-07
-3.90017e-07
-7.33567e-07
-2.54733e-07
-6.01622e-07
-1.46087e-07
-4.61032e-07
-6.62756e-08
-3.17701e-07
-1.70509e-08
-1.7859e-07
-5.20402e-08
-7.68192e-09
2.27114e-08
-2.92332e-08
7.5731e-08
-6.32286e-08
1.3152e-07
-1.08283e-07
1.86681e-07
-1.63045e-07
2.38929e-07
-2.26208e-07
2.86731e-07
-2.96523e-07
3.29185e-07
-3.72819e-07
3.65904e-07
-4.54018e-07
3.96888e-07
-5.39146e-07
4.22416e-07
-6.27339e-07
4.42959e-07
-7.17851e-07
4.59098e-07
-8.10048e-07
4.71468e-07
-9.03406e-07
4.80711e-07
-9.975e-07
4.87445e-07
-1.092e-06
4.92244e-07
-1.18666e-06
4.9562e-07
-1.2813e-06
4.9802e-07
-1.3758e-06
4.99827e-07
-1.47009e-06
5.01356e-07
-1.56416e-06
5.02863e-07
-1.658e-06
5.04546e-07
-1.75166e-06
5.06554e-07
-1.84516e-06
5.08988e-07
-1.93858e-06
5.1191e-07
-2.03196e-06
5.1534e-07
-2.12537e-06
5.19265e-07
-2.21883e-06
5.23636e-07
-2.3124e-06
5.28372e-07
-2.40606e-06
5.3336e-07
-2.49981e-06
5.38454e-07
-2.59359e-06
5.43475e-07
-2.68732e-06
5.48212e-07
-2.78088e-06
5.52418e-07
-2.87408e-06
5.55813e-07
-2.96671e-06
5.58083e-07
-3.0585e-06
5.58881e-07
-3.14911e-06
5.57824e-07
-3.23814e-06
5.54502e-07
-3.32514e-06
5.48473e-07
-3.4096e-06
5.39271e-07
-3.49093e-06
5.26411e-07
-3.56848e-06
5.09393e-07
-3.64156e-06
4.8771e-07
-3.70938e-06
4.60861e-07
-3.77114e-06
4.28357e-07
-3.82596e-06
3.89736e-07
-3.87292e-06
3.44579e-07
-3.91108e-06
2.92523e-07
-3.93945e-06
2.33284e-07
-3.95705e-06
1.66673e-07
-3.96288e-06
9.26193e-08
-3.95596e-06
1.1194e-08
-3.93532e-06
-7.73669e-08
-3.90005e-06
-1.72638e-07
-3.84931e-06
-2.73979e-07
-3.78234e-06
-3.80512e-07
-3.69851e-06
-4.911e-07
-3.59733e-06
-6.04333e-07
-3.47852e-06
-7.18508e-07
-3.34201e-06
-8.31637e-07
-3.18803e-06
-9.41446e-07
-3.01712e-06
-1.0454e-06
-2.83022e-06
-1.14076e-06
-2.62867e-06
-1.22459e-06
-2.4143e-06
-1.29393e-06
-2.18943e-06
-1.34582e-06
-1.95687e-06
-1.37747e-06
-1.71994e-06
-1.38643e-06
-1.48241e-06
-1.37073e-06
-1.24842e-06
-1.32906e-06
-1.02238e-06
-1.26096e-06
-8.08807e-07
-1.16695e-06
-6.12199e-07
-1.04866e-06
-4.3684e-07
-9.08926e-07
-2.86661e-07
-7.51801e-07
-1.65127e-07
-5.82566e-07
-7.51998e-08
-4.07629e-07
-1.93975e-08
-2.34392e-07
-7.14377e-08
-9.03013e-09
3.17415e-08
-3.41076e-08
1.00809e-07
-7.33269e-08
1.70739e-07
-1.24878e-07
2.38233e-07
-1.87049e-07
3.011e-07
-2.58235e-07
3.57916e-07
-3.36947e-07
4.07898e-07
-4.21828e-07
4.50784e-07
-5.11653e-07
4.86713e-07
-6.05342e-07
5.16105e-07
-7.01951e-07
5.39569e-07
-8.00678e-07
5.57825e-07
-9.00848e-07
5.71638e-07
-1.00191e-06
5.81771e-07
-1.10342e-06
5.88954e-07
-1.20503e-06
5.93858e-07
-1.3065e-06
5.97082e-07
-1.40762e-06
5.99149e-07
-1.5083e-06
6.00501e-07
-1.60845e-06
6.01508e-07
-1.70805e-06
6.02465e-07
-1.80711e-06
6.03604e-07
-1.90565e-06
6.05098e-07
-2.00373e-06
6.07064e-07
-2.10139e-06
6.09571e-07
-2.19869e-06
6.12643e-07
-2.29569e-06
6.16262e-07
-2.39243e-06
6.2037e-07
-2.48892e-06
6.24869e-07
-2.58519e-06
6.29626e-07
-2.6812e-06
6.34468e-07
-2.77691e-06
6.39186e-07
-2.87223e-06
6.4353e-07
-2.96703e-06
6.47216e-07
-3.06114e-06
6.4992e-07
-3.15433e-06
6.51278e-07
-3.24634e-06
6.50892e-07
-3.33685e-06
6.48326e-07
-3.42546e-06
6.43114e-07
-3.51174e-06
6.34756e-07
-3.5952e-06
6.22728e-07
-3.67527e-06
6.06487e-07
-3.75136e-06
5.85477e-07
-3.82278e-06
5.59135e-07
-3.88883e-06
5.26907e-07
-3.94873e-06
4.88255e-07
-4.00166e-06
4.42673e-07
-4.04679e-06
3.89701e-07
-4.08321e-06
3.28944e-07
-4.11001e-06
2.60089e-07
-4.12627e-06
1.82928e-07
-4.13103e-06
9.73793e-08
-4.12335e-06
3.51274e-09
-4.10229e-06
-9.84253e-08
-4.06694e-06
-2.07985e-07
-4.01643e-06
-3.24485e-07
-3.94996e-06
-4.46987e-07
-3.86679e-06
-5.74266e-07
-3.76633e-06
-7.04795e-07
-3.64812e-06
-8.36718e-07
-3.51191e-06
-9.67846e-07
-3.3577e-06
-1.09566e-06
-3.18579e-06
-1.21732e-06
-2.99684e-06
-1.3297e-06
-2.79197e-06
-1.42947e-06
-2.57275e-06
-1.51315e-06
-2.34133e-06
-1.57724e-06
-2.10039e-06
-1.61841e-06
-1.85322e-06
-1.6336e-06
-1.60366e-06
-1.62029e-06
-1.35604e-06
-1.57668e-06
-1.11508e-06
-1.50191e-06
-8.85771e-07
-1.39626e-06
-6.73159e-07
-1.26127e-06
-4.82197e-07
-1.09989e-06
-3.17559e-07
-9.1644e-07
-1.83495e-07
-7.1663e-07
-8.37607e-08
-5.07363e-07
-2.16277e-08
-2.96525e-07
-9.30653e-08
-1.03512e-08
4.20927e-08
-3.88988e-08
1.29356e-07
-8.32688e-08
2.15109e-07
-1.41228e-07
2.96192e-07
-2.10694e-07
3.70567e-07
-2.89752e-07
4.36974e-07
-3.76661e-07
4.94807e-07
-4.69861e-07
5.43984e-07
-5.67973e-07
5.84826e-07
-6.698e-07
6.17931e-07
-7.74313e-07
6.44082e-07
-8.80648e-07
6.64161e-07
-9.88092e-07
6.79081e-07
-1.09606e-06
6.89743e-07
-1.20411e-06
6.96997e-07
-1.31187e-06
7.01618e-07
-1.41908e-06
7.04299e-07
-1.52557e-06
7.05637e-07
-1.63121e-06
7.06143e-07
-1.73594e-06
7.06235e-07
-1.83973e-06
7.06255e-07
-1.94259e-06
7.06465e-07
-2.04455e-06
7.07061e-07
-2.14567e-06
7.08177e-07
-2.24599e-06
7.09891e-07
-2.34557e-06
7.12228e-07
-2.44447e-06
7.15166e-07
-2.54274e-06
7.18637e-07
-2.6404e-06
7.22529e-07
-2.73746e-06
7.26685e-07
-2.8339e-06
7.30908e-07
-2.92967e-06
7.34959e-07
-3.0247e-06
7.38555e-07
-3.11885e-06
7.41371e-07
-3.21197e-06
7.43042e-07
-3.30386e-06
7.43161e-07
-3.39425e-06
7.41281e-07
-3.48284e-06
7.36919e-07
-3.56928e-06
7.29554e-07
-3.65316e-06
7.18639e-07
-3.73403e-06
7.03597e-07
-3.81138e-06
6.83833e-07
-3.88464e-06
6.58741e-07
-3.95322e-06
6.27712e-07
-4.01646e-06
5.90145e-07
-4.07366e-06
5.45458e-07
-4.12409e-06
4.93106e-07
-4.16698e-06
4.32591e-07
-4.20152e-06
3.63484e-07
-4.22688e-06
2.85444e-07
-4.24219e-06
1.98237e-07
-4.24657e-06
1.01759e-07
-4.23912e-06
-3.93559e-09
-4.21893e-06
-1.1861e-07
-4.18511e-06
-2.41814e-07
-4.13673e-06
-3.72857e-07
-4.07295e-06
-5.10773e-07
-3.99292e-06
-6.54292e-07
-3.89591e-06
-8.01809e-07
-3.78126e-06
-9.51359e-07
-3.64851e-06
-1.1006e-06
-3.49738e-06
-1.24679e-06
-3.32786e-06
-1.38683e-06
-3.14031e-06
-1.51725e-06
-2.93551e-06
-1.63427e-06
-2.71474e-06
-1.73392e-06
-2.47987e-06
-1.81212e-06
-2.23339e-06
-1.86488e-06
-1.97851e-06
-1.88848e-06
-1.71907e-06
-1.87972e-06
-1.45959e-06
-1.83616e-06
-1.2051e-06
-1.7564e-06
-9.6105e-07
-1.64031e-06
-7.33118e-07
-1.48921e-06
-5.26986e-07
-1.30602e-06
-3.48143e-07
-1.09528e-06
-2.01697e-07
-8.63076e-07
-9.22474e-08
-6.16812e-07
-2.38393e-08
-3.64933e-07
-1.16905e-07
-1.16467e-08
5.37394e-08
-4.36042e-08
1.61314e-07
-9.30378e-08
2.64542e-07
-1.57289e-07
3.60443e-07
-2.33902e-07
4.47179e-07
-3.20638e-07
5.2371e-07
-4.15491e-07
5.8966e-07
-5.16689e-07
6.45182e-07
-6.22689e-07
6.90825e-07
-7.32167e-07
7.27409e-07
-8.44007e-07
7.55923e-07
-9.57283e-07
7.77437e-07
-1.07124e-06
7.93036e-07
-1.18527e-06
8.03774e-07
-1.2989e-06
8.1063e-07
-1.41178e-06
8.14496e-07
-1.52364e-06
8.1616e-07
-1.6343e-06
8.16301e-07
-1.74366e-06
8.15494e-07
-1.85164e-06
8.14215e-07
-1.95823e-06
8.12845e-07
-2.06344e-06
8.1168e-07
-2.16732e-06
8.1094e-07
-2.26992e-06
8.10775e-07
-2.3713e-06
8.1127e-07
-2.47152e-06
8.12453e-07
-2.57065e-06
8.14297e-07
-2.66874e-06
8.16724e-07
-2.76582e-06
8.19607e-07
-2.8619e-06
8.2277e-07
-2.95699e-06
8.25992e-07
-3.05103e-06
8.29003e-07
-3.14397e-06
8.3149e-07
-3.23569e-06
8.33094e-07
-3.32606e-06
8.33409e-07
-3.41488e-06
8.31989e-07
-3.50195e-06
8.28345e-07
-3.58698e-06
8.21948e-07
-3.66966e-06
8.12237e-07
-3.74964e-06
7.98616e-07
-3.82651e-06
7.80467e-07
-3.89982e-06
7.5715e-07
-3.9691e-06
7.28017e-07
-4.03381e-06
6.92418e-07
-4.09337e-06
6.49713e-07
-4.1472e-06
5.99282e-07
-4.19463e-06
5.40543e-07
-4.23501e-06
4.72964e-07
-4.26761e-06
3.96083e-07
-4.29168e-06
3.09523e-07
-4.30646e-06
2.13017e-07
-4.31114e-06
1.06431e-07
-4.30486e-06
-1.0216e-08
-4.28675e-06
-1.36716e-07
-4.25591e-06
-2.72649e-07
-4.21143e-06
-4.17345e-07
-4.15235e-06
-5.69849e-07
-4.07776e-06
-7.28888e-07
-3.98673e-06
-8.9283e-07
-3.87844e-06
-1.05965e-06
-3.75215e-06
-1.2269e-06
-3.60726e-06
-1.39168e-06
-3.44345e-06
-1.55064e-06
-3.26069e-06
-1.70001e-06
-3.05936e-06
-1.8356e-06
-2.84038e-06
-1.9529e-06
-2.60525e-06
-2.04724e-06
-2.35622e-06
-2.11391e-06
-2.0963e-06
-2.14841e-06
-1.82929e-06
-2.14673e-06
-1.55984e-06
-2.10562e-06
-1.29327e-06
-2.02297e-06
-1.03553e-06
-1.89805e-06
-7.92935e-07
-1.7318e-06
-5.7198e-07
-1.52697e-06
-3.79047e-07
-1.28822e-06
-2.20185e-07
-1.02194e-06
-1.00913e-07
-7.36084e-07
-2.61156e-08
-4.3973e-07
-1.4302e-07
-1.29191e-08
6.66585e-08
-4.82285e-08
1.96623e-07
-1.02635e-07
3.18949e-07
-1.73052e-07
4.3086e-07
-2.56638e-07
5.30765e-07
-3.50824e-07
6.17896e-07
-4.53327e-07
6.92163e-07
-5.62153e-07
7.54008e-07
-6.75584e-07
8.04256e-07
-7.92168e-07
8.43994e-07
-9.10697e-07
8.74451e-07
-1.03018e-06
8.96919e-07
-1.14982e-06
9.12676e-07
-1.26899e-06
9.22944e-07
-1.38721e-06
9.28849e-07
-1.50412e-06
9.31404e-07
-1.61946e-06
9.315e-07
-1.73306e-06
9.29901e-07
-1.84481e-06
9.27251e-07
-1.95468e-06
9.2408e-07
-2.06265e-06
9.20813e-07
-2.16874e-06
9.17777e-07
-2.27302e-06
9.15217e-07
-2.37554e-06
9.13297e-07
-2.47639e-06
9.12111e-07
-2.57562e-06
9.11688e-07
-2.67332e-06
9.11998e-07
-2.76955e-06
9.12953e-07
-2.86435e-06
9.14411e-07
-2.95776e-06
9.16178e-07
-3.04978e-06
9.18011e-07
-3.14039e-06
9.19614e-07
-3.22955e-06
9.20644e-07
-3.31716e-06
9.2071e-07
-3.40313e-06
9.19374e-07
-3.48729e-06
9.16153e-07
-3.56947e-06
9.10522e-07
-3.64943e-06
9.01915e-07
-3.72693e-06
8.89732e-07
-3.80166e-06
8.73342e-07
-3.87328e-06
8.52088e-07
-3.94142e-06
8.25297e-07
-4.00569e-06
7.92284e-07
-4.06564e-06
7.52366e-07
-4.12079e-06
7.04868e-07
-4.17065e-06
6.4914e-07
-4.21468e-06
5.84566e-07
-4.25229e-06
5.10581e-07
-4.2829e-06
4.26687e-07
-4.30585e-06
3.3247e-07
-4.32045e-06
2.27623e-07
-4.32598e-06
1.11964e-07
-4.32167e-06
-1.45342e-08
-4.30666e-06
-1.51718e-07
-4.28009e-06
-2.99221e-07
-4.24101e-06
-4.56429e-07
-4.18842e-06
-6.2244e-07
-4.12128e-06
-7.96022e-07
-4.03855e-06
-9.75565e-07
-3.93916e-06
-1.15904e-06
-3.82211e-06
-1.34395e-06
-3.68649e-06
-1.52729e-06
-3.53159e-06
-1.70554e-06
-3.35696e-06
-1.87464e-06
-3.16254e-06
-2.03002e-06
-2.94877e-06
-2.16667e-06
-2.71675e-06
-2.27926e-06
-2.46835e-06
-2.36232e-06
-2.20629e-06
-2.41047e-06
-1.93427e-06
-2.41874e-06
-1.65697e-06
-2.38292e-06
-1.37999e-06
-2.29995e-06
-1.10973e-06
-2.16831e-06
-8.53206e-07
-1.98832e-06
-6.17763e-07
-1.76242e-06
-4.10771e-07
-1.49521e-06
-2.3932e-07
-1.19339e-06
-1.09962e-07
-8.65443e-07
-2.85225e-08
-5.21169e-07
-1.71543e-07
-1.41731e-08
8.08316e-08
-5.27838e-08
2.35234e-07
-1.12078e-07
3.78243e-07
-1.88532e-07
5.07314e-07
-2.78909e-07
6.21141e-07
-3.80296e-07
7.19283e-07
-4.90122e-07
8.0199e-07
-6.06161e-07
8.70046e-07
-7.26516e-07
9.24611e-07
-8.49601e-07
9.67079e-07
-9.74114e-07
9.98964e-07
-1.099e-06
1.02181e-06
-1.22343e-06
1.0371e-06
-1.34675e-06
1.04627e-06
-1.46848e-06
1.05058e-06
-1.58827e-06
1.05119e-06
-1.70587e-06
1.0491e-06
-1.82111e-06
1.04515e-06
-1.93393e-06
1.04006e-06
-2.04428e-06
1.03443e-06
-2.15217e-06
1.02871e-06
-2.25766e-06
1.02327e-06
-2.36081e-06
1.01836e-06
-2.4617e-06
1.01419e-06
-2.56042e-06
1.01083e-06
-2.65706e-06
1.00833e-06
-2.75172e-06
1.00665e-06
-2.84446e-06
1.0057e-06
-2.93537e-06
1.00531e-06
-3.02447e-06
1.00528e-06
-3.11181e-06
1.00535e-06
-3.19739e-06
1.00519e-06
-3.28118e-06
1.00444e-06
-3.36314e-06
1.00267e-06
-3.44319e-06
9.99424e-07
-3.52122e-06
9.94186e-07
-3.5971e-06
9.86399e-07
-3.67065e-06
9.75469e-07
-3.74168e-06
9.60762e-07
-3.80996e-06
9.41619e-07
-3.87522e-06
9.17354e-07
-3.93719e-06
8.87265e-07
-3.99555e-06
8.5064e-07
-4.04995e-06
8.06768e-07
-4.10003e-06
7.54948e-07
-4.14539e-06
6.94501e-07
-4.18561e-06
6.24782e-07
-4.22022e-06
5.45193e-07
-4.24873e-06
4.552e-07
-4.27061e-06
3.54348e-07
-4.28527e-06
2.42281e-07
-4.29206e-06
1.18762e-07
-4.2903e-06
-1.63011e-08
-4.27919e-06
-1.62827e-07
-4.25788e-06
-3.20533e-07
-4.22542e-06
-4.8889e-07
-4.18077e-06
-6.67087e-07
-4.12281e-06
-8.53978e-07
-4.05034e-06
-1.04803e-06
-3.96211e-06
-1.24727e-06
-3.85684e-06
-1.44922e-06
-3.73331e-06
-1.65083e-06
-3.59038e-06
-1.84847e-06
-3.42717e-06
-2.03786e-06
-3.2431e-06
-2.21409e-06
-3.03809e-06
-2.37167e-06
-2.81273e-06
-2.50463e-06
-2.56838e-06
-2.60667e-06
-2.30741e-06
-2.67144e-06
-2.03327e-06
-2.69288e-06
-1.75059e-06
-2.66561e-06
-1.46515e-06
-2.5854e-06
-1.18379e-06
-2.44966e-06
-9.14219e-07
-2.25789e-06
-6.64691e-07
-2.01194e-06
-4.43656e-07
-1.71624e-06
-2.59368e-07
-1.37768e-06
-1.19547e-07
-1.00526e-06
-3.11102e-08
-6.09607e-07
-2.02653e-07
-1.54148e-08
9.62464e-08
-5.72904e-08
2.77109e-07
-1.21402e-07
4.42355e-07
-2.03775e-07
5.89687e-07
-3.00761e-07
7.18127e-07
-4.09088e-07
8.2761e-07
-5.25886e-07
9.18788e-07
-6.48686e-07
9.92847e-07
-7.75408e-07
1.05133e-06
-9.04331e-07
1.096e-06
-1.03406e-06
1.12869e-06
-1.16348e-06
1.15122e-06
-1.29172e-06
1.16535e-06
-1.41814e-06
1.17268e-06
-1.54224e-06
1.17468e-06
-1.66369e-06
1.17264e-06
-1.78226e-06
1.16766e-06
-1.89781e-06
1.1607e-06
-2.01029e-06
1.15254e-06
-2.11968e-06
1.14382e-06
-2.22603e-06
1.13506e-06
-2.32941e-06
1.12664e-06
-2.4299e-06
1.11886e-06
-2.52761e-06
1.1119e-06
-2.62266e-06
1.10588e-06
-2.71515e-06
1.10083e-06
-2.8052e-06
1.0967e-06
-2.89291e-06
1.0934e-06
-2.97836e-06
1.09076e-06
-3.06163e-06
1.08855e-06
-3.14277e-06
1.08649e-06
-3.22182e-06
1.08424e-06
-3.2988e-06
1.08141e-06
-3.37368e-06
1.07756e-06
-3.44644e-06
1.07219e-06
-3.51702e-06
1.06477e-06
-3.58534e-06
1.05471e-06
-3.65127e-06
1.0414e-06
-3.7147e-06
1.02419e-06
-3.77547e-06
1.00239e-06
-3.8334e-06
9.75284e-07
-3.88829e-06
9.42159e-07
-3.93993e-06
9.02279e-07
-3.98808e-06
8.54914e-07
-4.03247e-06
7.99339e-07
-4.07282e-06
7.34853e-07
-4.10882e-06
6.60783e-07
-4.14013e-06
5.76502e-07
-4.16637e-06
4.81438e-07
-4.18711e-06
3.75092e-07
-4.20188e-06
2.57054e-07
-4.21014e-06
1.27022e-07
-4.21127e-06
-1.51737e-08
-4.20456e-06
-1.69542e-07
-4.18919e-06
-3.35904e-07