/*--------------------------------*- C++ -*----------------------------------*\
  =========                 |
  \\      /  F ield         | OpenFOAM: The Open Source CFD Toolbox
   \\    /   O peration     | Website:  https://openfoam.org
    \\  /    A nd           | Version:  7
     \\/     M anipulation  |
\*---------------------------------------------------------------------------*/
FoamFile
{
    version     2.0;
    format      ascii;
    class       volVectorField;
    location    "0.5";
    object      U;
}
// * * * * * * * * * * * * * * * * * * * * * * * * * * * * * * * * * * * * * //

dimensions      [0 1 -1 0 0 0 0];

internalField   nonuniform List<vector> 
3200
(
(4.00855e-05 -4.01691e-05 0)
(0.000128828 -5.48356e-05 0)
(0.000196484 -3.47092e-05 0)
(0.000187365 -2.35621e-06 0)
(8.23405e-05 3.15781e-05 0)
(-0.000116728 6.25658e-05 0)
(-0.000400504 8.90161e-05 0)
(-0.000756868 0.000110566 0)
(-0.00117325 0.000127514 0)
(-0.00163773 0.000140428 0)
(-0.00213967 0.000149961 0)
(-0.00267002 0.000156769 0)
(-0.00322138 0.000161462 0)
(-0.0037879 0.000164582 0)
(-0.00436516 0.000166599 0)
(-0.00495001 0.000167903 0)
(-0.00554036 0.000168815 0)
(-0.00613504 0.000169589 0)
(-0.00673356 0.000170422 0)
(-0.00733604 0.000171465 0)
(-0.00794302 0.000172828 0)
(-0.00855538 0.000174591 0)
(-0.00917425 0.000176807 0)
(-0.00980092 0.000179512 0)
(-0.0104368 0.000182726 0)
(-0.0110833 0.000186455 0)
(-0.0117419 0.0001907 0)
(-0.0124141 0.000195447 0)
(-0.0131013 0.000200677 0)
(-0.0138046 0.000206359 0)
(-0.0145253 0.000212454 0)
(-0.0152644 0.00021891 0)
(-0.0160225 0.000225661 0)
(-0.0168002 0.000232624 0)
(-0.0175975 0.000239699 0)
(-0.0184141 0.000246765 0)
(-0.0192495 0.000253678 0)
(-0.0201021 0.000260267 0)
(-0.0209703 0.000266333 0)
(-0.0218512 0.000271648 0)
(-0.0227415 0.000275948 0)
(-0.0236368 0.000278938 0)
(-0.0245319 0.000280289 0)
(-0.0254203 0.000279635 0)
(-0.0262944 0.000276582 0)
(-0.0271455 0.000270706 0)
(-0.0279635 0.000261561 0)
(-0.028737 0.000248689 0)
(-0.0294535 0.00023163 0)
(-0.030099 0.000209937 0)
(-0.0306586 0.000183198 0)
(-0.0311163 0.000151056 0)
(-0.0314556 0.000113241 0)
(-0.0316594 6.95962e-05 0)
(-0.0317108 2.01166e-05 0)
(-0.0315935 -3.50268e-05 0)
(-0.0312922 -9.54265e-05 0)
(-0.0307936 -0.000160426 0)
(-0.0300869 -0.000229086 0)
(-0.0291649 -0.000300165 0)
(-0.0280245 -0.000372116 0)
(-0.0266678 -0.000443094 0)
(-0.0251027 -0.000510995 0)
(-0.0233434 -0.000573505 0)
(-0.021411 -0.000628189 0)
(-0.0193336 -0.000672581 0)
(-0.0171462 -0.000704316 0)
(-0.0148899 -0.000721245 0)
(-0.0126114 -0.000721571 0)
(-0.0103617 -0.000703949 0)
(-0.00819474 -0.00066757 0)
(-0.00616541 -0.000612194 0)
(-0.00432797 -0.000538149 0)
(-0.00273401 -0.000446312 0)
(-0.00143032 -0.000338186 0)
(-0.000456069 -0.000216391 0)
(0.000160917 -8.6226e-05 0)
(0.000414677 4.09238e-05 0)
(0.000354001 0.000136708 0)
(0.000128053 0.000127906 0)
(5.59698e-05 -0.00012996 0)
(0.000145874 -0.000144239 0)
(0.000134964 -2.99908e-05 0)
(-6.25241e-05 0.000136597 0)
(-0.000481768 0.00031538 0)
(-0.00112419 0.000485397 0)
(-0.00197448 0.000636667 0)
(-0.00300885 0.000765307 0)
(-0.00420016 0.000870992 0)
(-0.00552113 0.0009553 0)
(-0.00694636 0.00102077 0)
(-0.00845336 0.00107033 0)
(-0.0100231 0.00110698 0)
(-0.01164 0.00113355 0)
(-0.0132918 0.0011526 0)
(-0.0149696 0.0011664 0)
(-0.016667 0.00117684 0)
(-0.0183798 0.00118552 0)
(-0.020106 0.00119369 0)
(-0.0218451 0.00120238 0)
(-0.0235977 0.00121234 0)
(-0.0253656 0.00122417 0)
(-0.0271512 0.00123827 0)
(-0.0289574 0.00125493 0)
(-0.0307874 0.00127431 0)
(-0.0326446 0.00129648 0)
(-0.0345326 0.00132144 0)
(-0.0364548 0.00134909 0)
(-0.0384143 0.00137929 0)
(-0.0404141 0.00141177 0)
(-0.0424566 0.00144624 0)
(-0.0445437 0.00148228 0)
(-0.0466768 0.00151939 0)
(-0.0488562 0.00155696 0)
(-0.0510812 0.00159424 0)
(-0.0533503 0.00163038 0)
(-0.0556601 0.00166438 0)
(-0.0580062 0.00169506 0)
(-0.060382 0.0017211 0)
(-0.0627791 0.00174101 0)
(-0.065187 0.00175312 0)
(-0.0675927 0.00175556 0)
(-0.0699806 0.00174634 0)
(-0.0723323 0.00172327 0)
(-0.0746264 0.00168404 0)
(-0.0768386 0.00162625 0)
(-0.0789414 0.00154742 0)
(-0.0809042 0.00144511 0)
(-0.0826935 0.00131692 0)
(-0.0842729 0.00116066 0)
(-0.0856041 0.000974398 0)
(-0.0866464 0.000756648 0)
(-0.0873584 0.000506481 0)
(-0.0876983 0.000223704 0)
(-0.0876253 -9.09761e-05 0)
(-0.0871006 -0.000435769 0)
(-0.0860893 -0.000807636 0)
(-0.0845616 -0.00120215 0)
(-0.082495 -0.00161337 0)
(-0.0798759 -0.00203381 0)
(-0.0767016 -0.00245444 0)
(-0.0729821 -0.00286475 0)
(-0.0687414 -0.00325301 0)
(-0.0640192 -0.00360656 0)
(-0.0588714 -0.00391223 0)
(-0.0533702 -0.00415686 0)
(-0.0476039 -0.00432793 0)
(-0.0416754 -0.00441423 0)
(-0.0357002 -0.00440649 0)
(-0.0298036 -0.004298 0)
(-0.024117 -0.00408513 0)
(-0.0187736 -0.0037677 0)
(-0.0139035 -0.00334936 0)
(-0.00962806 -0.00283792 0)
(-0.00605359 -0.00224626 0)
(-0.00326287 -0.00159482 0)
(-0.00130391 -0.000917391 0)
(-0.000170484 -0.000272289 0)
(0.000233681 0.00022967 0)
(0.000136276 0.000351735 0)
(3.70185e-05 -0.000200455 0)
(3.21754e-05 -0.0001343 0)
(-0.000181093 0.000178155 0)
(-0.000679938 0.000599939 0)
(-0.0014977 0.00105243 0)
(-0.00263537 0.00148921 0)
(-0.00407355 0.00188496 0)
(-0.00578123 0.00222809 0)
(-0.00772202 0.00251558 0)
(-0.00985846 0.0027496 0)
(-0.0121548 0.00293522 0)
(-0.0145789 0.003079 0)
(-0.0171027 0.00318805 0)
(-0.019703 0.00326935 0)
(-0.0223612 0.00332944 0)
(-0.025063 0.00337415 0)
(-0.0277983 0.00340857 0)
(-0.03056 0.00343696 0)
(-0.0333442 0.00346286 0)
(-0.0361493 0.00348907 0)
(-0.0389757 0.00351781 0)
(-0.0418251 0.00355076 0)
(-0.0447007 0.00358914 0)
(-0.0476062 0.00363379 0)
(-0.050546 0.00368521 0)
(-0.0535247 0.00374364 0)
(-0.0565472 0.00380904 0)
(-0.059618 0.00388115 0)
(-0.0627414 0.00395947 0)
(-0.0659211 0.00404328 0)
(-0.0691602 0.0041316 0)
(-0.0724608 0.0042232 0)
(-0.0758238 0.00431656 0)
(-0.079249 0.00440988 0)
(-0.0827342 0.00450099 0)
(-0.0862756 0.00458738 0)
(-0.0898671 0.00466615 0)
(-0.0935003 0.00473399 0)
(-0.0971639 0.00478717 0)
(-0.100844 0.00482152 0)
(-0.104522 0.00483243 0)
(-0.108178 0.00481487 0)
(-0.111786 0.00476341 0)
(-0.115317 0.00467227 0)
(-0.118738 0.00453542 0)
(-0.12201 0.00434662 0)
(-0.125093 0.00409962 0)
(-0.127939 0.00378831 0)
(-0.130498 0.00340688 0)
(-0.132717 0.00295018 0)
(-0.134539 0.00241389 0)
(-0.135906 0.00179496 0)
(-0.136758 0.00109192 0)
(-0.137037 0.000305302 0)
(-0.136684 -0.000561971 0)
(-0.135647 -0.00150414 0)
(-0.13388 -0.00251227 0)
(-0.131343 -0.00357393 0)
(-0.128007 -0.00467296 0)
(-0.123859 -0.0057894 0)
(-0.118898 -0.00689955 0)
(-0.113144 -0.00797629 0)
(-0.106635 -0.00898961 0)
(-0.0994311 -0.00990739 0)
(-0.0916154 -0.0106965 0)
(-0.0832933 -0.0113239 0)
(-0.0745922 -0.0117586 0)
(-0.0656597 -0.0119727 0)
(-0.0566608 -0.0119435 0)
(-0.0477737 -0.0116546 0)
(-0.0391848 -0.0110979 0)
(-0.0310824 -0.0102744 0)
(-0.0236496 -0.00919585 0)
(-0.0170559 -0.00788565 0)
(-0.0114474 -0.00638185 0)
(-0.0069357 -0.00474226 0)
(-0.00358222 -0.00305493 0)
(-0.00137835 -0.00145588 0)
(-0.000231159 -0.000164811 0)
(4.76613e-05 0.000417495 0)
(4.17322e-06 -0.000193368 0)
(-0.00014396 6.98119e-05 0)
(-0.000634194 0.000682591 0)
(-0.00151042 0.00145524 0)
(-0.00279096 0.00227279 0)
(-0.00447068 0.00306307 0)
(-0.00652403 0.00378407 0)
(-0.0089132 0.00441498 0)
(-0.0115946 0.00494909 0)
(-0.0145231 0.00538868 0)
(-0.0176556 0.00574147 0)
(-0.0209525 0.00601822 0)
(-0.0243791 0.00623094 0)
(-0.0279063 0.00639179 0)
(-0.0315104 0.00651235 0)
(-0.0351727 0.00660313 0)
(-0.0388798 0.00667337 0)
(-0.042622 0.00673097 0)
(-0.0463936 0.00678251 0)
(-0.0501917 0.00683332 0)
(-0.0540161 0.00688762 0)
(-0.0578683 0.00694864 0)
(-0.0617516 0.00701877 0)
(-0.0656701 0.00709964 0)
(-0.0696288 0.00719225 0)
(-0.073633 0.00729705 0)
(-0.077688 0.00741397 0)
(-0.0817992 0.00754245 0)
(-0.0859711 0.0076815 0)
(-0.0902079 0.00782964 0)
(-0.0945125 0.0079849 0)
(-0.0988866 0.00814482 0)
(-0.10333 0.0083064 0)
(-0.107842 0.00846603 0)
(-0.112418 0.00861949 0)
(-0.117052 0.00876187 0)
(-0.121734 0.00888759 0)
(-0.126453 0.00899029 0)
(-0.131191 0.00906287 0)
(-0.13593 0.00909746 0)
(-0.140645 0.00908544 0)
(-0.145308 0.00901749 0)
(-0.149884 0.00888363 0)
(-0.154337 0.00867335 0)
(-0.158621 0.00837579 0)
(-0.16269 0.00797986 0)
(-0.166488 0.0074746 0)
(-0.169957 0.00684942 0)
(-0.173036 0.00609454 0)
(-0.175656 0.00520142 0)
(-0.177749 0.00416329 0)
(-0.179244 0.00297575 0)
(-0.180069 0.00163739 0)
(-0.180154 0.000150466 0)
(-0.179432 -0.00147839 0)
(-0.177841 -0.00323754 0)
(-0.175326 -0.00510975 0)
(-0.171846 -0.00707163 0)
(-0.167369 -0.00909339 0)
(-0.161881 -0.0111387 0)
(-0.155387 -0.0131649 0)
(-0.147913 -0.0151235 0)
(-0.139509 -0.0169613 0)
(-0.13025 -0.0186215 0)
(-0.120237 -0.0200457 0)
(-0.1096 -0.0211761 0)
(-0.0984923 -0.021958 0)
(-0.0870935 -0.0223426 0)
(-0.0756027 -0.02229 0)
(-0.0642352 -0.0217722 0)
(-0.0532163 -0.0207751 0)
(-0.0427738 -0.0193022 0)
(-0.0331291 -0.0173758 0)
(-0.0244871 -0.0150405 0)
(-0.0170252 -0.0123674 0)
(-0.0108801 -0.00946108 0)
(-0.00613214 -0.00647261 0)
(-0.00278677 -0.00361954 0)
(-0.000791315 -0.00122114 0)
(-6.1186e-05 0.000201319 0)
(-3.31929e-05 -8.25349e-05 0)
(-0.000348486 0.000521004 0)
(-0.00116024 0.00154381 0)
(-0.00246394 0.00275727 0)
(-0.00425348 0.00401691 0)
(-0.0065122 0.00522855 0)
(-0.00920527 0.00633529 0)
(-0.0122868 0.00730775 0)
(-0.0157061 0.00813568 0)
(-0.0194116 0.00882159 0)
(-0.023354 0.00937608 0)
(-0.027488 0.0098144 0)
(-0.0317737 0.010154 0)
(-0.0361774 0.0104129 0)
(-0.0406713 0.0106083 0)
(-0.0452335 0.0107561 0)
(-0.0498474 0.0108704 0)
(-0.0545015 0.0109634 0)
(-0.0591882 0.0110453 0)
(-0.0639035 0.0111243 0)
(-0.0686463 0.0112073 0)
(-0.0734178 0.0112993 0)
(-0.0782211 0.0114041 0)
(-0.0830603 0.0115243 0)
(-0.0879405 0.0116616 0)
(-0.0928673 0.0118166 0)
(-0.0978463 0.0119892 0)
(-0.102883 0.0121785 0)
(-0.107981 0.0123827 0)
(-0.113146 0.0125995 0)
(-0.118379 0.0128255 0)
(-0.123682 0.0130568 0)
(-0.129054 0.0132882 0)
(-0.13449 0.0135141 0)
(-0.139986 0.0137275 0)
(-0.145532 0.0139206 0)
(-0.151116 0.0140844 0)
(-0.156722 0.0142088 0)
(-0.162329 0.0142827 0)
(-0.167913 0.0142938 0)
(-0.173443 0.0142286 0)
(-0.178886 0.0140728 0)
(-0.1842 0.0138112 0)
(-0.189341 0.0134279 0)
(-0.194255 0.0129065 0)
(-0.198888 0.0122307 0)
(-0.203176 0.0113844 0)
(-0.207052 0.0103523 0)
(-0.210445 0.00912045 0)
(-0.21328 0.00767715 0)
(-0.215479 0.00601344 0)
(-0.216962 0.00412408 0)
(-0.217652 0.00200844 0)
(-0.21747 -0.000328501 0)
(-0.216345 -0.00287526 0)
(-0.21421 -0.00561291 0)
(-0.211007 -0.00851425 0)
(-0.206691 -0.0115431 0)
(-0.201231 -0.0146541 0)
(-0.194613 -0.0177923 0)
(-0.186846 -0.0208936 0)
(-0.177958 -0.0238856 0)
(-0.168006 -0.0266891 0)
(-0.157076 -0.0292196 0)
(-0.145279 -0.0313905 0)
(-0.132758 -0.0331159 0)
(-0.119686 -0.0343144 0)
(-0.106261 -0.0349133 0)
(-0.0927052 -0.034853 0)
(-0.0792596 -0.0340911 0)
(-0.0661778 -0.0326069 0)
(-0.0537169 -0.0304055 0)
(-0.0421286 -0.0275211 0)
(-0.0316475 -0.0240217 0)
(-0.0224795 -0.0200139 0)
(-0.0147895 -0.0156513 0)
(-0.00868457 -0.0111473 0)
(-0.00419946 -0.00679274 0)
(-0.00134391 -0.00298578 0)
(-0.00016323 -0.000319393 0)
(-7.13004e-05 0.000139938 0)
(-0.000564249 0.00124435 0)
(-0.00172198 0.00279754 0)
(-0.00348385 0.00454532 0)
(-0.00581305 0.00632178 0)
(-0.00867693 0.00801604 0)
(-0.0120281 0.00955967 0)
(-0.0158107 0.0109168 0)
(-0.0199661 0.0120749 0)
(-0.0244362 0.0130375 0)
(-0.0291661 0.0138186 0)
(-0.0341055 0.0144386 0)
(-0.0392104 0.014921 0)
(-0.0444432 0.0152899 0)
(-0.049773 0.0155688 0)
(-0.0551752 0.0157796 0)
(-0.060631 0.0159417 0)
(-0.0661269 0.016072 0)
(-0.071654 0.0161847 0)
(-0.0772073 0.0162916 0)
(-0.0827848 0.0164022 0)
(-0.0883872 0.0165236 0)
(-0.0940172 0.0166614 0)
(-0.0996788 0.0168192 0)
(-0.105377 0.0169994 0)
(-0.111117 0.0172029 0)
(-0.116905 0.0174295 0)
(-0.122746 0.0176777 0)
(-0.128643 0.017945 0)
(-0.134601 0.0182276 0)
(-0.140621 0.0185209 0)
(-0.146703 0.0188188 0)
(-0.152846 0.0191141 0)
(-0.159043 0.0193983 0)
(-0.165287 0.0196613 0)
(-0.171566 0.0198919 0)
(-0.177866 0.0200774 0)
(-0.184166 0.0202032 0)
(-0.190444 0.0202538 0)
(-0.196669 0.0202118 0)
(-0.202808 0.0200586 0)
(-0.208821 0.0197743 0)
(-0.214663 0.0193381 0)
(-0.220282 0.0187284 0)
(-0.225621 0.0179231 0)
(-0.230619 0.0169004 0)
(-0.235208 0.015639 0)
(-0.239315 0.014119 0)
(-0.242862 0.0123226 0)
(-0.245772 0.0102351 0)
(-0.24796 0.0078458 0)
(-0.249344 0.00514911 0)
(-0.249841 0.00214582 0)
(-0.249372 -0.00115571 0)
(-0.247861 -0.00473842 0)
(-0.245238 -0.00857525 0)
(-0.241446 -0.0126283 0)
(-0.236436 -0.0168477 0)
(-0.230178 -0.0211714 0)
(-0.222656 -0.025525 0)
(-0.213878 -0.0298218 0)
(-0.203875 -0.0339644 0)
(-0.192705 -0.0378457 0)
(-0.180454 -0.0413522 0)
(-0.167239 -0.0443668 0)
(-0.15321 -0.046773 0)
(-0.138547 -0.0484603 0)
(-0.123459 -0.049329 0)
(-0.108185 -0.049297 0)
(-0.0929817 -0.0483049 0)
(-0.0781246 -0.0463229 0)
(-0.0638947 -0.0433557 0)
(-0.0505702 -0.0394485 0)
(-0.0384142 -0.0346917 0)
(-0.0276631 -0.0292269 0)
(-0.0185148 -0.0232547 0)
(-0.0111118 -0.0170456 0)
(-0.00552953 -0.0109532 0)
(-0.00185044 -0.00543491 0)
(-0.000251153 -0.00112048 0)
(-0.000108804 0.000475879 0)
(-0.000782828 0.00225141 0)
(-0.0022981 0.00446323 0)
(-0.00453484 0.00684264 0)
(-0.00742177 0.00921024 0)
(-0.0109068 0.0114443 0)
(-0.0149272 0.0134694 0)
(-0.019415 0.0152459 0)
(-0.0243023 0.0167613 0)
(-0.0295238 0.0180215 0)
(-0.0350189 0.0190451 0)
(-0.0407329 0.0198584 0)
(-0.0466177 0.0204914 0)
(-0.0526328 0.020975 0)
(-0.0587446 0.0213397 0)
(-0.0649263 0.0216134 0)
(-0.0711573 0.0218214 0)
(-0.0774228 0.0219857 0)
(-0.0837126 0.0221248 0)
(-0.0900208 0.0222542 0)
(-0.0963448 0.0223863 0)
(-0.102685 0.0225308 0)
(-0.109043 0.0226947 0)
(-0.115423 0.0228831 0)
(-0.12183 0.023099 0)
(-0.128268 0.0233435 0)
(-0.134744 0.0236163 0)
(-0.141262 0.0239153 0)
(-0.147825 0.024237 0)
(-0.154437 0.0245763 0)
(-0.161098 0.0249266 0)
(-0.167807 0.0252797 0)
(-0.174562 0.0256259 0)
(-0.181354 0.0259535 0)
(-0.188176 0.0262493 0)
(-0.195012 0.0264982 0)
(-0.201846 0.0266831 0)
(-0.208655 0.0267851 0)
(-0.215413 0.0267836 0)
(-0.222089 0.0266561 0)
(-0.228643 0.0263785 0)
(-0.235034 0.0259253 0)
(-0.241214 0.0252698 0)
(-0.247127 0.0243847 0)
(-0.252714 0.0232423 0)
(-0.25791 0.0218154 0)
(-0.262644 0.0200777 0)
(-0.266842 0.0180051 0)
(-0.270425 0.015576 0)
(-0.273311 0.0127732 0)
(-0.275416 0.00958454 0)
(-0.276657 0.00600458 0)
(-0.27695 0.00203581 0)
(-0.276214 -0.0023098 0)
(-0.274373 -0.00700937 0)
(-0.271358 -0.0120277 0)
(-0.267107 -0.0173161 0)
(-0.261572 -0.0228111 0)
(-0.254718 -0.0284344 0)
(-0.246529 -0.0340918 0)
(-0.237007 -0.0396743 0)
(-0.22618 -0.0450589 0)
(-0.214102 -0.0501106 0)
(-0.200856 -0.0546855 0)
(-0.186555 -0.0586346 0)
(-0.171349 -0.0618092 0)
(-0.155418 -0.0640665 0)
(-0.138977 -0.0652771 0)
(-0.122271 -0.0653326 0)
(-0.105572 -0.064153 0)
(-0.089169 -0.0616954 0)
(-0.0733667 -0.057961 0)
(-0.0584686 -0.053002 0)
(-0.0447681 -0.0469282 0)
(-0.032536 -0.0399131 0)
(-0.0220091 -0.0321997 0)
(-0.0133732 -0.0241093 0)
(-0.00675187 -0.0160482 0)
(-0.00230301 -0.00851879 0)
(-0.00032488 -0.00216862 0)
(-0.000145268 0.000924635 0)
(-0.00100017 0.00354609 0)
(-0.00287674 0.00654974 0)
(-0.0055954 0.00966095 0)
(-0.00904842 0.012694 0)
(-0.0131619 0.0155225 0)
(-0.0178552 0.0180684 0)
(-0.0230465 0.0202923 0)
(-0.0286572 0.0221842 0)
(-0.0346139 0.0237546 0)
(-0.04085 0.025028 0)
(-0.0473059 0.0260378 0)
(-0.0539301 0.0268212 0)
(-0.0606791 0.027417 0)
(-0.0675171 0.0278624 0)
(-0.0744156 0.0281924 0)
(-0.0813527 0.0284383 0)
(-0.0883124 0.0286273 0)
(-0.0952836 0.0287827 0)
(-0.10226 0.0289238 0)
(-0.109238 0.0290661 0)
(-0.116217 0.0292216 0)
(-0.1232 0.0293995 0)
(-0.130189 0.0296059 0)
(-0.13719 0.0298446 0)
(-0.144207 0.030117 0)
(-0.151245 0.0304224 0)
(-0.158308 0.0307582 0)
(-0.1654 0.0311196 0)
(-0.172522 0.0315001 0)
(-0.179676 0.0318912 0)
(-0.186859 0.0322822 0)
(-0.194067 0.0326605 0)
(-0.201291 0.0330115 0)
(-0.208521 0.0333182 0)
(-0.215742 0.0335615 0)
(-0.222934 0.03372 0)
(-0.230074 0.0337702 0)
(-0.237134 0.0336863 0)
(-0.24408 0.0334406 0)
(-0.250873 0.0330035 0)
(-0.257468 0.0323439 0)
(-0.263817 0.0314297 0)
(-0.269863 0.0302277 0)
(-0.275546 0.0287051 0)
(-0.280801 0.0268295 0)
(-0.285557 0.0245701 0)
(-0.28974 0.0218985 0)
(-0.293272 0.0187902 0)
(-0.296073 0.0152256 0)
(-0.298059 0.0111913 0)
(-0.299149 0.00668207 0)
(-0.29926 0.00170208 0)
(-0.298312 -0.00373329 0)
(-0.296228 -0.00959578 0)
(-0.29294 -0.0158427 0)
(-0.288384 -0.0224153 0)
(-0.282508 -0.0292376 0)
(-0.275275 -0.0362159 0)
(-0.26666 -0.0432375 0)
(-0.256661 -0.050172 0)
(-0.245295 -0.0568714 0)
(-0.232607 -0.063173 0)
(-0.218671 -0.0689021 0)
(-0.203591 -0.0738769 0)
(-0.187508 -0.0779142 0)
(-0.170599 -0.0808364 0)
(-0.153076 -0.0824807 0)
(-0.135186 -0.0827078 0)
(-0.11721 -0.0814121 0)
(-0.0994526 -0.0785322 0)
(-0.082238 -0.07406 0)
(-0.065897 -0.0680499 0)
(-0.0507566 -0.060626 0)
(-0.0371268 -0.0519878 0)
(-0.0252895 -0.0424159 0)
(-0.0154804 -0.0322758 0)
(-0.00787606 -0.0220193 0)
(-0.00270916 -0.0121856 0)
(-0.000387447 -0.0034342 0)
(-0.000180657 0.00148453 0)
(-0.00121445 0.00512795 0)
(-0.00345136 0.00905908 0)
(-0.00665251 0.0130039 0)
(-0.0106727 0.0167768 0)
(-0.0154145 0.0202522 0)
(-0.0207778 0.0233544 0)
(-0.0266649 0.0260482 0)
(-0.0329854 0.0283291 0)
(-0.0396569 0.0302146 0)
(-0.0466059 0.0317374 0)
(-0.053768 0.0329388 0)
(-0.0610879 0.0338648 0)
(-0.0685196 0.0345622 0)
(-0.0760252 0.0350764 0)
(-0.0835748 0.0354491 0)
(-0.0911454 0.0357182 0)
(-0.0987201 0.0359165 0)
(-0.106287 0.0360721 0)
(-0.11384 0.0362081 0)
(-0.121375 0.0363435 0)
(-0.128891 0.0364927 0)
(-0.13639 0.0366668 0)
(-0.143875 0.0368732 0)
(-0.151351 0.0371163 0)
(-0.158822 0.0373979 0)
(-0.166292 0.037717 0)
(-0.173767 0.03807 0)
(-0.181247 0.0384512 0)
(-0.188737 0.0388524 0)
(-0.196234 0.0392628 0)
(-0.203736 0.0396695 0)
(-0.211239 0.0400569 0)
(-0.218733 0.040407 0)
(-0.226208 0.0406993 0)
(-0.233646 0.0409106 0)
(-0.241029 0.0410151 0)
(-0.248332 0.0409846 0)
(-0.255526 0.0407885 0)
(-0.262577 0.0403939 0)
(-0.269447 0.039766 0)
(-0.276091 0.0388683 0)
(-0.28246 0.0376634 0)
(-0.288499 0.036113 0)
(-0.294151 0.0341793 0)
(-0.299352 0.0318252 0)
(-0.304032 0.0290157 0)
(-0.308122 0.0257189 0)
(-0.311546 0.0219072 0)
(-0.314227 0.0175589 0)
(-0.316086 0.0126596 0)
(-0.317042 0.00720381 0)
(-0.317018 0.0011971 0)
(-0.315934 -0.00534248 0)
(-0.313715 -0.0123823 0)
(-0.31029 -0.0198734 0)
(-0.305595 -0.0277486 0)
(-0.299574 -0.0359213 0)
(-0.29218 -0.0442839 0)
(-0.283384 -0.0527075 0)
(-0.273169 -0.0610415 0)
(-0.261541 -0.0691148 0)
(-0.248531 -0.0767376 0)
(-0.234196 -0.0837048 0)
(-0.218626 -0.0898006 0)
(-0.201949 -0.0948054 0)
(-0.184329 -0.0985039 0)
(-0.165971 -0.100695 0)
(-0.147122 -0.101204 0)
(-0.128066 -0.0998916 0)
(-0.109121 -0.0966721 0)
(-0.0906312 -0.0915208 0)
(-0.0729569 -0.0844865 0)
(-0.056462 -0.0757006 0)
(-0.0415012 -0.0653829 0)
(-0.0284075 -0.0538452 0)
(-0.0174718 -0.0414923 0)
(-0.00892822 -0.0288169 0)
(-0.0030827 -0.016393 0)
(-0.000442703 -0.0048949 0)
(-0.000215061 0.00215343 0)
(-0.00142492 0.00699404 0)
(-0.00401846 0.0119889 0)
(-0.00769836 0.0168696 0)
(-0.0122816 0.0214561 0)
(-0.0176459 0.0256287 0)
(-0.0236702 0.029319 0)
(-0.0302399 0.0325 0)
(-0.0372513 0.0351763 0)
(-0.0446122 0.0373752 0)
(-0.0522416 0.0391392 0)
(-0.0600699 0.0405199 0)
(-0.0680381 0.0415729 0)
(-0.0760973 0.0423542 0)
(-0.0842079 0.0429176 0)
(-0.0923389 0.0433125 0)
(-0.100466 0.0435834 0)
(-0.108573 0.0437691 0)
(-0.116647 0.0439026 0)
(-0.124681 0.044011 0)
(-0.132671 0.0441166 0)
(-0.140617 0.0442365 0)
(-0.148521 0.0443836 0)
(-0.156384 0.0445666 0)
(-0.164213 0.0447907 0)
(-0.17201 0.0450578 0)
(-0.179781 0.0453665 0)
(-0.18753 0.0457126 0)
(-0.195259 0.046089 0)
(-0.20297 0.0464858 0)
(-0.210662 0.0468902 0)
(-0.218332 0.0472867 0)
(-0.225975 0.0476569 0)
(-0.233583 0.0479795 0)
(-0.241143 0.0482302 0)
(-0.24864 0.048382 0)
(-0.256054 0.0484048 0)
(-0.263362 0.0482661 0)
(-0.270535 0.0479304 0)
(-0.27754 0.0473602 0)
(-0.28434 0.0465156 0)
(-0.290893 0.0453554 0)
(-0.297152 0.0438372 0)
(-0.303067 0.0419182 0)
(-0.30858 0.0395559 0)
(-0.313634 0.0367092 0)
(-0.318164 0.0333392 0)
(-0.322104 0.0294107 0)
(-0.325384 0.0248935 0)
(-0.327931 0.0197637 0)
(-0.329672 0.0140054 0)
(-0.330531 0.00761282 0)
(-0.330433 0.000591839 0)
(-0.329301 -0.00703788 0)
(-0.327062 -0.0152408 0)
(-0.323645 -0.0239636 0)
(-0.31898 -0.0331329 0)
(-0.313007 -0.0426535 0)
(-0.305672 -0.0524071 0)
(-0.296932 -0.0622506 0)
(-0.286757 -0.0720162 0)
(-0.275137 -0.0815114 0)
(-0.262082 -0.0905207 0)
(-0.24763 -0.0988092 0)
(-0.231851 -0.106127 0)
(-0.214851 -0.112215 0)
(-0.196778 -0.116819 0)
(-0.177824 -0.119692 0)
(-0.15823 -0.120618 0)
(-0.13828 -0.119418 0)
(-0.118304 -0.115972 0)
(-0.0986649 -0.110228 0)
(-0.0797547 -0.102223 0)
(-0.0619779 -0.0920842 0)
(-0.0457389 -0.0800458 0)
(-0.0314277 -0.0664449 0)
(-0.0193964 -0.0517213 0)
(-0.00994024 -0.0364073 0)
(-0.00343888 -0.0211133 0)
(-0.000494349 -0.00653708 0)
(-0.000248598 0.00292914 0)
(-0.00163138 0.00914017 0)
(-0.00457631 0.0153341 0)
(-0.00872851 0.0212522 0)
(-0.0138668 0.0267243 0)
(-0.0198433 0.031642 0)
(-0.026515 0.0359485 0)
(-0.0337489 0.0396292 0)
(-0.0414273 0.0427013 0)
(-0.0494471 0.045205 0)
(-0.0577197 0.0471951 0)
(-0.0661695 0.0487352 0)
(-0.0747336 0.049892 0)
(-0.0833607 0.0507319 0)
(-0.0920094 0.0513178 0)
(-0.100648 0.0517074 0)
(-0.109251 0.0519521 0)
(-0.117802 0.0520969 0)
(-0.126289 0.0521797 0)
(-0.134705 0.0522321 0)
(-0.143046 0.0522795 0)
(-0.151311 0.0523417 0)
(-0.159503 0.0524334 0)
(-0.167625 0.0525648 0)
(-0.175681 0.0527416 0)
(-0.183677 0.0529659 0)
(-0.191615 0.053236 0)
(-0.199501 0.0535469 0)
(-0.207338 0.0538902 0)
(-0.215127 0.0542543 0)
(-0.222867 0.0546243 0)
(-0.230557 0.0549824 0)
(-0.238191 0.0553071 0)
(-0.245761 0.055574 0)
(-0.253256 0.0557556 0)
(-0.260661 0.0558209 0)
(-0.267957 0.055736 0)
(-0.275123 0.055464 0)
(-0.282132 0.0549654 0)
(-0.288954 0.0541981 0)
(-0.295554 0.0531179 0)
(-0.301893 0.0516793 0)
(-0.307929 0.0498355 0)
(-0.313616 0.0475396 0)
(-0.318902 0.0447452 0)
(-0.323734 0.0414074 0)
(-0.328054 0.037484 0)
(-0.331803 0.0329368 0)
(-0.334916 0.0277327 0)
(-0.337329 0.0218458 0)
(-0.338973 0.0152583 0)
(-0.339778 0.00796322 0)
(-0.339673 -3.4228e-05 0)
(-0.338586 -0.00871428 0)
(-0.336443 -0.0180404 0)
(-0.333172 -0.0279571 0)
(-0.328702 -0.0383874 0)
(-0.322964 -0.0492307 0)
(-0.315896 -0.0603608 0)
(-0.30744 -0.0716239 0)
(-0.297551 -0.0828379 0)
(-0.286198 -0.0937917 0)
(-0.273368 -0.104247 0)
(-0.259075 -0.113938 0)
(-0.24336 -0.122583 0)
(-0.226306 -0.129882 0)
(-0.208038 -0.135534 0)
(-0.188728 -0.139247 0)
(-0.168605 -0.140752 0)
(-0.14795 -0.139823 0)
(-0.127099 -0.136293 0)
(-0.106436 -0.130075 0)
(-0.0863846 -0.121178 0)
(-0.0673921 -0.10972 0)
(-0.0499182 -0.0959375 0)
(-0.0344156 -0.0801881 0)
(-0.0213035 -0.062943 0)
(-0.0109436 -0.0447746 0)
(-0.00379208 -0.0263345 0)
(-0.000545601 -0.00835548 0)
(-0.000281389 0.00380949 0)
(-0.00183395 0.0115615 0)
(-0.00512438 0.019088 0)
(-0.00974084 0.0261431 0)
(-0.0154238 0.0325708 0)
(-0.021999 0.0382781 0)
(-0.0293004 0.0432246 0)
(-0.0371758 0.0474121 0)
(-0.0454925 0.0508744 0)
(-0.0541361 0.0536675 0)
(-0.0630093 0.0558614 0)
(-0.0720309 0.0575336 0)
(-0.0811338 0.0587638 0)
(-0.090264 0.0596297 0)
(-0.0993788 0.0602042 0)
(-0.108445 0.0605539 0)
(-0.117439 0.0607378 0)
(-0.126343 0.060807 0)
(-0.135146 0.0608048 0)
(-0.14384 0.0607671 0)
(-0.152422 0.0607226 0)
(-0.160894 0.0606937 0)
(-0.169257 0.0606971 0)
(-0.177515 0.0607441 0)
(-0.185673 0.0608413 0)
(-0.193735 0.0609907 0)
(-0.201708 0.0611905 0)
(-0.209596 0.0614347 0)
(-0.217402 0.0617138 0)
(-0.225129 0.0620144 0)
(-0.232776 0.0623199 0)
(-0.240342 0.0626097 0)
(-0.247823 0.06286 0)
(-0.255212 0.0630434 0)
(-0.262499 0.063129 0)
(-0.269671 0.0630824 0)
(-0.276711 0.0628663 0)
(-0.283601 0.0624399 0)
(-0.290316 0.0617599 0)
(-0.29683 0.0607804 0)
(-0.303113 0.0594535 0)
(-0.30913 0.0577295 0)
(-0.314844 0.0555583 0)
(-0.320214 0.0528893 0)
(-0.325197 0.0496726 0)
(-0.329745 0.0458602 0)
(-0.333809 0.0414069 0)
(-0.337335 0.0362714 0)
(-0.340269 0.0304182 0)
(-0.342551 0.0238187 0)
(-0.344121 0.0164528 0)
(-0.344915 0.00831145 0)
(-0.344868 -0.000602159 0)
(-0.34391 -0.0102698 0)
(-0.34197 -0.0206561 0)
(-0.338975 -0.0317059 0)
(-0.33485 -0.0433416 0)
(-0.329521 -0.0554606 0)
(-0.322913 -0.0679324 0)
(-0.314956 -0.0805963 0)
(-0.305585 -0.0932596 0)
(-0.294746 -0.105696 0)
(-0.282402 -0.117646 0)
(-0.268535 -0.12882 0)
(-0.253159 -0.138898 0)
(-0.236323 -0.147541 0)
(-0.218122 -0.154401 0)
(-0.198704 -0.15913 0)
(-0.178279 -0.161401 0)
(-0.157119 -0.16093 0)
(-0.135562 -0.157491 0)
(-0.11401 -0.150948 0)
(-0.0929165 -0.141271 0)
(-0.0727756 -0.128555 0)
(-0.0541056 -0.113028 0)
(-0.0374285 -0.0950608 0)
(-0.0232372 -0.0751535 0)
(-0.0119663 -0.0539201 0)
(-0.00415467 -0.0320594 0)
(-0.000599093 -0.0103522 0)
(-0.000313561 0.0047925 0)
(-0.00203301 0.0142533 0)
(-0.00566304 0.0232434 0)
(-0.0107351 0.0315324 0)
(-0.016951 0.0389823 0)
(-0.0241092 0.0455199 0)
(-0.0320195 0.0511252 0)
(-0.04051 0.055821 0)
(-0.0494321 0.0596613 0)
(-0.0586594 0.0627215 0)
(-0.068086 0.0650896 0)
(-0.0776244 0.0668593 0)
(-0.0872035 0.0681248 0)
(-0.096767 0.0689767 0)
(-0.106271 0.0694989 0)
(-0.115682 0.0697676 0)
(-0.124976 0.0698496 0)
(-0.134137 0.0698026 0)
(-0.143153 0.0696755 0)
(-0.152018 0.0695083 0)
(-0.160731 0.0693333 0)
(-0.169293 0.0691756 0)
(-0.177707 0.0690535 0)
(-0.185977 0.0689798 0)
(-0.19411 0.0689616 0)
(-0.202112 0.0690012 0)
(-0.209988 0.0690962 0)
(-0.217744 0.06924 0)
(-0.225384 0.069422 0)
(-0.232913 0.0696272 0)
(-0.24033 0.0698369 0)
(-0.247636 0.0700286 0)
(-0.254827 0.070176 0)
(-0.2619 0.0702489 0)
(-0.268846 0.0702135 0)
(-0.275655 0.0700325 0)
(-0.282313 0.0696652 0)
(-0.288803 0.0690679 0)
(-0.295107 0.0681937 0)
(-0.301203 0.0669935 0)
(-0.307064 0.0654162 0)
(-0.312662 0.063409 0)
(-0.317968 0.0609186 0)
(-0.322945 0.0578915 0)
(-0.327559 0.0542748 0)
(-0.33177 0.0500179 0)
(-0.335537 0.0450726 0)
(-0.338814 0.0393951 0)
(-0.341556 0.0329469 0)
(-0.343711 0.0256966 0)
(-0.345227 0.0176213 0)
(-0.346048 0.00870871 0)
(-0.346112 -0.00104122 0)
(-0.345356 -0.0116136 0)
(-0.343711 -0.0229765 0)
(-0.341103 -0.0350777 0)
(-0.337456 -0.0478423 0)
(-0.332687 -0.061169 0)
(-0.326713 -0.0749272 0)
(-0.319447 -0.0889535 0)
(-0.310808 -0.103049 0)
(-0.300717 -0.116976 0)
(-0.289107 -0.130459 0)
(-0.275931 -0.143183 0)
(-0.261165 -0.154798 0)
(-0.244823 -0.164923 0)
(-0.226963 -0.173157 0)
(-0.207701 -0.179095 0)
(-0.187219 -0.182343 0)
(-0.165774 -0.182545 0)
(-0.143701 -0.179408 0)
(-0.121411 -0.172727 0)
(-0.0993886 -0.162418 0)
(-0.0781747 -0.148535 0)
(-0.0583497 -0.131292 0)
(-0.0405108 -0.111059 0)
(-0.0252325 -0.0883623 0)
(-0.013031 -0.0638594 0)
(-0.00453664 -0.0383034 0)
(-0.000656893 -0.0125352 0)
(-0.000345264 0.00587649 0)
(-0.0022292 0.017211 0)
(-0.00619355 0.0277931 0)
(-0.011713 0.0374098 0)
(-0.0184496 0.0459446 0)
(-0.0261735 0.053348 0)
(-0.0346701 0.0596252 0)
(-0.0437462 0.0648243 0)
(-0.0532369 0.0690235 0)
(-0.0630035 0.072321 0)
(-0.0729311 0.0748259 0)
(-0.0829259 0.0766507 0)
(-0.0929133 0.077906 0)
(-0.102835 0.0786967 0)
(-0.112645 0.0791189 0)
(-0.122312 0.0792588 0)
(-0.131811 0.0791918 0)
(-0.141128 0.0789826 0)
(-0.150251 0.0786855 0)
(-0.159178 0.078345 0)
(-0.167907 0.0779968 0)
(-0.176441 0.0776686 0)
(-0.184785 0.0773808 0)
(-0.192945 0.077147 0)
(-0.200927 0.0769752 0)
(-0.20874 0.0768677 0)
(-0.21639 0.0768219 0)
(-0.223885 0.0768306 0)
(-0.23123 0.0768816 0)
(-0.238429 0.076959 0)
(-0.245486 0.0770422 0)
(-0.252403 0.0771067 0)
(-0.259179 0.0771239 0)
(-0.26581 0.0770613 0)
(-0.272292 0.0768826 0)
(-0.278618 0.0765479 0)
(-0.284778 0.0760139 0)
(-0.290759 0.0752338 0)
(-0.296547 0.0741584 0)
(-0.302124 0.0727358 0)
(-0.307471 0.0709121 0)
(-0.312567 0.0686322 0)
(-0.317386 0.0658401 0)
(-0.321904 0.0624799 0)
(-0.326091 0.0584965 0)
(-0.329917 0.0538365 0)
(-0.333349 0.0484495 0)
(-0.336352 0.042289 0)
(-0.338887 0.0353136 0)
(-0.340914 0.0274888 0)
(-0.342387 0.0187881 0)
(-0.343259 0.00919501 0)
(-0.343474 -0.00129497 0)
(-0.342975 -0.0126721 0)
(-0.341696 -0.0249098 0)
(-0.339564 -0.0379618 0)
(-0.336501 -0.0517589 0)
(-0.332419 -0.0662048 0)
(-0.327226 -0.081173 0)
(-0.320822 -0.0965019 0)
(-0.313106 -0.111991 0)
(-0.303977 -0.127398 0)
(-0.293338 -0.142434 0)
(-0.281106 -0.156764 0)
(-0.267221 -0.170009 0)
(-0.251654 -0.181747 0)
(-0.23442 -0.191527 0)
(-0.215596 -0.198878 0)
(-0.195326 -0.203333 0)
(-0.173843 -0.204454 0)
(-0.151468 -0.201861 0)
(-0.128619 -0.195267 0)
(-0.105803 -0.184514 0)
(-0.0836079 -0.1696 0)
(-0.062678 -0.1507 0)
(-0.0436919 -0.128181 0)
(-0.0273147 -0.102587 0)
(-0.0141544 -0.0746191 0)
(-0.00494554 -0.0450914 0)
(-0.000720566 -0.0149174 0)
(-0.000376694 0.00706017 0)
(-0.0024235 0.0204311 0)
(-0.00671818 0.0327306 0)
(-0.0126776 0.0437651 0)
(-0.0199233 0.0534427 0)
(-0.0281957 0.0617418 0)
(-0.0372542 0.0686975 0)
(-0.0468839 0.0743872 0)
(-0.0569029 0.0789181 0)
(-0.06716 0.0824152 0)
(-0.0775311 0.0850114 0)
(-0.0879166 0.0868409 0)
(-0.0982385 0.088033 0)
(-0.108436 0.088708 0)
(-0.118465 0.0889757 0)
(-0.128293 0.088933 0)
(-0.137897 0.0886644 0)
(-0.147264 0.0882417 0)
(-0.156386 0.0877251 0)
(-0.16526 0.0871634 0)
(-0.173889 0.086596 0)
(-0.182276 0.0860529 0)
(-0.190429 0.0855564 0)
(-0.198355 0.0851214 0)
(-0.206063 0.0847563 0)
(-0.213562 0.0844636 0)
(-0.220862 0.0842404 0)
(-0.22797 0.0840787 0)
(-0.234895 0.0839655 0)
(-0.241642 0.0838834 0)
(-0.248218 0.0838103 0)
(-0.254625 0.08372 0)
(-0.260866 0.083582 0)
(-0.266941 0.0833618 0)
(-0.272848 0.0830209 0)
(-0.278583 0.0825172 0)
(-0.284141 0.0818051 0)
(-0.289513 0.0808358 0)
(-0.294691 0.0795578 0)
(-0.299662 0.0779172 0)
(-0.304414 0.0758581 0)
(-0.308931 0.0733233 0)
(-0.313197 0.0702549 0)
(-0.317194 0.0665951 0)
(-0.320901 0.0622869 0)
(-0.324297 0.0572748 0)
(-0.327358 0.0515062 0)