# Probe 0 (5.5 -0.5 0)
# Probe 1 (5.5 0.5 0)
#       Probe             0             1
#        Time
        0.005             (0.997984 0.00123336 3.43777e-20)             (0.997984 -0.00123335 -2.64321e-20)
         0.01             (0.998176 0.000981298 -2.86998e-21)             (0.998176 -0.0009813 2.19403e-21)
        0.015             (0.998125 0.000974618 6.84983e-22)             (0.998125 -0.000974617 -5.3626e-22)
         0.02             (0.998082 0.000966734 5.57377e-22)             (0.998082 -0.000966734 -4.35981e-22)
        0.025             (0.998045 0.00096032 4.85506e-22)             (0.998045 -0.00096032 -3.79146e-22)
         0.03             (0.998012 0.000955741 4.25031e-22)             (0.998012 -0.000955741 -3.31624e-22)
        0.035             (0.997981 0.000952618 3.74662e-22)             (0.997981 -0.000952618 -2.92121e-22)
         0.04             (0.997954 0.00095061 3.32023e-22)             (0.997954 -0.00095061 -2.5873e-22)
        0.045             (0.997928 0.000949485 2.95525e-22)             (0.997928 -0.000949486 -2.30187e-22)
         0.05             (0.997904 0.000949019 2.63493e-22)             (0.997904 -0.000949019 -2.05167e-22)
        0.055             (0.997883 0.00094906 2.35286e-22)             (0.997883 -0.00094906 -1.83155e-22)
         0.06             (0.997862 0.000949504 2.10367e-22)             (0.997862 -0.000949504 -1.63727e-22)
        0.065             (0.997843 0.000950271 1.8821e-22)             (0.997843 -0.000950271 -1.46464e-22)
         0.07             (0.997825 0.000951297 1.68385e-22)             (0.997825 -0.000951297 -1.31028e-22)
        0.075             (0.997808 0.000952543 1.50674e-22)             (0.997808 -0.000952543 -1.17244e-22)
         0.08             (0.997791 0.000953973 1.34749e-22)             (0.997791 -0.000953973 -1.04857e-22)
        0.085             (0.997776 0.000955559 1.20363e-22)             (0.997776 -0.000955559 -9.36712e-23)
         0.09             (0.997761 0.000957268 1.0725e-22)             (0.997761 -0.000957268 -8.34804e-23)
        0.095             (0.997747 0.00095908 9.52972e-23)             (0.997747 -0.00095908 -7.41942e-23)
          0.1             (0.997733 0.000960994 8.44952e-23)             (0.997733 -0.000960994 -6.5804e-23)
        0.105             (0.99772 0.00096299 7.45598e-23)             (0.99772 -0.00096299 -5.80897e-23)
         0.11             (0.997708 0.000965057 6.54715e-23)             (0.997708 -0.000965057 -5.10347e-23)
        0.115             (0.997696 0.00096719 5.71666e-23)             (0.997696 -0.00096719 -4.45893e-23)
         0.12             (0.997684 0.000969369 4.93985e-23)             (0.997684 -0.000969369 -3.85636e-23)
        0.125             (0.997673 0.000971598 4.23637e-23)             (0.997673 -0.000971598 -3.31025e-23)
         0.13             (0.997662 0.00097387 3.58439e-23)             (0.997662 -0.00097387 -2.80428e-23)
        0.135             (0.997651 0.000976176 2.97313e-23)             (0.997651 -0.000976176 -2.33027e-23)
         0.14             (0.997641 0.000978511 2.40674e-23)             (0.997641 -0.000978512 -1.89113e-23)
        0.145             (0.99763 0.000980875 1.88138e-23)             (0.99763 -0.000980875 -1.48384e-23)
         0.15             (0.997621 0.000983264 1.39259e-23)             (0.997621 -0.000983264 -1.10494e-23)
        0.155             (0.997611 0.000985676 9.37583e-24)             (0.997611 -0.000985676 -7.52251e-24)
         0.16             (0.997601 0.00098811 5.14621e-24)             (0.997601 -0.00098811 -4.24422e-24)
        0.165             (0.997592 0.000990565 1.19937e-24)             (0.997592 -0.000990565 -1.18541e-24)
         0.17             (0.997583 0.000993039 -2.48222e-24)             (0.997583 -0.00099304 1.66786e-24)
        0.175             (0.997574 0.000995532 -5.91836e-24)             (0.997574 -0.000995533 4.33062e-24)
         0.18             (0.997565 0.000998044 -9.12675e-24)             (0.997565 -0.000998044 6.81694e-24)
        0.185             (0.997556 0.00100057 -1.21138e-23)             (0.997556 -0.00100057 9.13177e-24)
         0.19             (0.997548 0.00100312 -1.49088e-23)             (0.997548 -0.00100312 1.12978e-23)
        0.195             (0.997539 0.00100568 -1.75245e-23)             (0.997539 -0.00100568 1.33249e-23)
          0.2             (0.997531 0.00100826 -1.997e-23)             (0.997531 -0.00100826 1.52201e-23)
        0.205             (0.997523 0.00101086 -2.22588e-23)             (0.997523 -0.00101086 1.69939e-23)
         0.21             (0.997515 0.00101348 -2.44019e-23)             (0.997515 -0.00101348 1.86549e-23)
        0.215             (0.997506 0.00101611 -2.63959e-23)             (0.997506 -0.00101611 2.02005e-23)
         0.22             (0.997498 0.00101876 -2.82594e-23)             (0.997498 -0.00101876 2.16451e-23)
        0.225             (0.99749 0.00102144 -3.00135e-23)             (0.99749 -0.00102144 2.30047e-23)
         0.23             (0.997483 0.00102412 -3.16571e-23)             (0.997483 -0.00102412 2.42784e-23)
        0.235             (0.997475 0.00102684 -3.31657e-23)             (0.997475 -0.00102684 2.54472e-23)
         0.24             (0.997467 0.00102957 -3.45475e-23)             (0.997467 -0.00102957 2.65168e-23)
        0.245             (0.997459 0.00103234 -3.58442e-23)             (0.997459 -0.00103234 2.75132e-23)
         0.25             (0.997451 0.00103511 -3.72343e-23)             (0.997451 -0.00103511 2.8592e-23)
        0.255             (0.997444 0.00103788 -3.85918e-23)             (0.997444 -0.00103788 2.96538e-23)
         0.26             (0.997436 0.00104066 -3.974e-23)             (0.997436 -0.00104066 3.05443e-23)
        0.265             (0.997428 0.00104347 -4.08172e-23)             (0.997428 -0.00104347 3.13796e-23)
         0.27             (0.997421 0.00104629 -4.18431e-23)             (0.997421 -0.00104629 3.2175e-23)
        0.275             (0.997413 0.00104913 -4.28135e-23)             (0.997413 -0.00104913 3.29275e-23)
         0.28             (0.997406 0.00105198 -4.37201e-23)             (0.997406 -0.00105198 3.36306e-23)
        0.285             (0.997398 0.00105486 -4.45912e-23)             (0.997398 -0.00105486 3.4306e-23)
         0.29             (0.997391 0.00105775 -4.53881e-23)             (0.997391 -0.00105775 3.49249e-23)
        0.295             (0.997383 0.00106065 -4.61647e-23)             (0.997383 -0.00106065 3.5527e-23)
          0.3             (0.997376 0.00106358 -4.69076e-23)             (0.997376 -0.00106358 3.61036e-23)
        0.305             (0.997368 0.00106652 -4.76168e-23)             (0.997368 -0.00106652 3.66539e-23)
         0.31             (0.997361 0.00106947 -4.82926e-23)             (0.997361 -0.00106947 3.71783e-23)
        0.315             (0.997353 0.00107244 -4.89376e-23)             (0.997353 -0.00107244 3.76788e-23)
         0.32             (0.997346 0.00107543 -4.95566e-23)             (0.997346 -0.00107543 3.81591e-23)
        0.325             (0.997338 0.00107844 -5.01367e-23)             (0.997338 -0.00107844 3.86094e-23)
         0.33             (0.997331 0.00108145 -5.07083e-23)             (0.997331 -0.00108145 3.90528e-23)
        0.335             (0.997323 0.00108449 -5.12681e-23)             (0.997323 -0.00108449 3.94871e-23)
         0.34             (0.997316 0.00108753 -5.17942e-23)             (0.997316 -0.00108753 3.98952e-23)
        0.345             (0.997308 0.00109059 -5.22987e-23)             (0.997308 -0.00109059 4.02864e-23)
         0.35             (0.997301 0.00109367 -5.2782e-23)             (0.997301 -0.00109367 4.06615e-23)
        0.355             (0.997294 0.00109675 -5.32375e-23)             (0.997294 -0.00109675 4.10152e-23)
         0.36             (0.997286 0.00109986 -5.36844e-23)             (0.997286 -0.00109986 4.13617e-23)
        0.365             (0.997279 0.00110297 -5.41044e-23)             (0.997279 -0.00110298 4.16876e-23)
         0.37             (0.997271 0.00110611 -5.45138e-23)             (0.997271 -0.00110611 4.20052e-23)
        0.375             (0.997264 0.00110925 -5.49037e-23)             (0.997264 -0.00110925 4.23076e-23)
         0.38             (0.997256 0.00111241 -5.5319e-23)             (0.997256 -0.00111241 4.26293e-23)
        0.385             (0.997249 0.00111557 -5.57372e-23)             (0.997249 -0.00111557 4.29529e-23)
         0.39             (0.997241 0.00111875 -5.61187e-23)             (0.997241 -0.00111875 4.32486e-23)
        0.395             (0.997233 0.00112193 -5.64913e-23)             (0.997233 -0.00112193 4.35372e-23)
          0.4             (0.997226 0.00112513 -5.6828e-23)             (0.997226 -0.00112513 4.37983e-23)
        0.405             (0.997218 0.00112834 -5.71653e-23)             (0.997218 -0.00112835 4.40597e-23)
         0.41             (0.997211 0.00113157 -5.74975e-23)             (0.997211 -0.00113157 4.43169e-23)
        0.415             (0.997203 0.0011348 -5.78178e-23)             (0.997203 -0.0011348 4.4565e-23)
         0.42             (0.997196 0.00113805 -5.81191e-23)             (0.997196 -0.00113805 4.47985e-23)
        0.425             (0.997188 0.00114131 -5.84158e-23)             (0.997188 -0.00114131 4.50282e-23)
         0.43             (0.99718 0.00114459 -5.87033e-23)             (0.99718 -0.00114459 4.52508e-23)
        0.435             (0.997173 0.00114788 -5.8975e-23)             (0.997173 -0.00114788 4.54612e-23)
         0.44             (0.997165 0.00115119 -5.92066e-23)             (0.997165 -0.00115119 4.56403e-23)
        0.445             (0.997157 0.0011545 -5.95315e-23)             (0.997157 -0.0011545 4.58927e-23)
         0.45             (0.99715 0.00115781 -5.98553e-23)             (0.99715 -0.00115781 4.61445e-23)
        0.455             (0.997142 0.00116114 -6.01222e-23)             (0.997142 -0.00116114 4.63512e-23)
         0.46             (0.997134 0.00116446 -6.04574e-23)             (0.997134 -0.00116446 4.66094e-23)
        0.465             (0.997126 0.00116779 -6.07454e-23)             (0.997126 -0.00116779 4.68316e-23)
         0.47             (0.997119 0.00117113 -6.10265e-23)             (0.997119 -0.00117113 4.70487e-23)
        0.475             (0.997111 0.00117449 -6.12788e-23)             (0.997111 -0.00117449 4.72437e-23)
         0.48             (0.997103 0.00117785 -6.15146e-23)             (0.997103 -0.00117785 4.74258e-23)
        0.485             (0.997095 0.00118123 -6.17442e-23)             (0.997095 -0.00118123 4.76037e-23)
         0.49             (0.997087 0.00118461 -6.19708e-23)             (0.997087 -0.00118461 4.77786e-23)
        0.495             (0.99708 0.00118801 -6.21863e-23)             (0.99708 -0.00118802 4.79452e-23)
          0.5             (0.997072 0.00119143 -6.24119e-23)             (0.997072 -0.00119143 4.81196e-23)
        0.505             (0.997064 0.00119485 -6.26259e-23)             (0.997064 -0.00119485 4.82848e-23)
         0.51             (0.997056 0.00119829 -6.28433e-23)             (0.997056 -0.00119829 4.84528e-23)
        0.515             (0.997048 0.00120174 -6.30699e-23)             (0.997048 -0.00120174 4.86279e-23)
         0.52             (0.99704 0.00120519 -6.33072e-23)             (0.99704 -0.00120519 4.88109e-23)
        0.525             (0.997032 0.00120866 -6.35197e-23)             (0.997032 -0.00120866 4.89751e-23)
         0.53             (0.997024 0.00121214 -6.37325e-23)             (0.997024 -0.00121214 4.91393e-23)
        0.535             (0.997016 0.00121563 -6.39435e-23)             (0.997016 -0.00121563 4.93022e-23)
         0.54             (0.997008 0.00121913 -6.41482e-23)             (0.997008 -0.00121913 4.94603e-23)
        0.545             (0.997 0.00122264 -6.43435e-23)             (0.997 -0.00122264 4.96112e-23)
         0.55             (0.996992 0.00122617 -6.45467e-23)             (0.996992 -0.00122617 4.97682e-23)
        0.555             (0.996984 0.0012297 -6.47438e-23)             (0.996984 -0.0012297 4.99205e-23)
         0.56             (0.996975 0.00123325 -6.49335e-23)             (0.996975 -0.00123325 5.00673e-23)
        0.565             (0.996967 0.00123681 -6.5124e-23)             (0.996967 -0.00123681 5.02151e-23)
         0.57             (0.996959 0.00124038 -6.53408e-23)             (0.996959 -0.00124038 5.03814e-23)
        0.575             (0.996951 0.00124396 -6.5571e-23)             (0.996951 -0.00124396 5.05576e-23)
         0.58             (0.996943 0.00124754 -6.57727e-23)             (0.996943 -0.00124754 5.07132e-23)
        0.585             (0.996934 0.00125114 -6.59386e-23)             (0.996934 -0.00125114 5.08415e-23)
         0.59             (0.996926 0.00125475 -6.61394e-23)             (0.996926 -0.00125475 5.09962e-23)
        0.595             (0.996918 0.00125838 -6.63103e-23)             (0.996918 -0.00125838 5.11283e-23)
          0.6             (0.99691 0.00126201 -6.65039e-23)             (0.99691 -0.00126201 5.12776e-23)
        0.605             (0.996901 0.00126565 -6.66961e-23)             (0.996901 -0.00126566 5.1426e-23)
         0.61             (0.996893 0.00126931 -6.68641e-23)             (0.996893 -0.00126931 5.15557e-23)
        0.615             (0.996884 0.00127298 -6.70391e-23)             (0.996884 -0.00127298 5.16907e-23)
         0.62             (0.996876 0.00127666 -6.7241e-23)             (0.996876 -0.00127666 5.18465e-23)
        0.625             (0.996868 0.00128035 -6.7425e-23)             (0.996868 -0.00128035 5.19885e-23)
         0.63             (0.996859 0.00128405 -6.75992e-23)             (0.996859 -0.00128405 5.21229e-23)
        0.635             (0.996851 0.00128777 -6.78026e-23)             (0.996851 -0.00128777 5.22798e-23)
         0.64             (0.996842 0.00129149 -6.7997e-23)             (0.996842 -0.00129149 5.24298e-23)
        0.645             (0.996834 0.00129522 -6.82188e-23)             (0.996834 -0.00129522 5.26006e-23)
         0.65             (0.996825 0.00129895 -6.845e-23)             (0.996825 -0.00129895 5.27786e-23)
        0.655             (0.996816 0.0013027 -6.86362e-23)             (0.996816 -0.0013027 5.29223e-23)
         0.66             (0.996808 0.00130646 -6.88158e-23)             (0.996808 -0.00130646 5.30609e-23)
        0.665             (0.996799 0.00131022 -6.89985e-23)             (0.996799 -0.00131022 5.32022e-23)
         0.67             (0.996791 0.001314 -6.9191e-23)             (0.996791 -0.001314 5.3351e-23)
        0.675             (0.996782 0.00131779 -6.93925e-23)             (0.996782 -0.00131779 5.35067e-23)
         0.68             (0.996773 0.00132158 -6.9577e-23)             (0.996773 -0.00132158 5.36495e-23)
        0.685             (0.996764 0.00132539 -6.97375e-23)             (0.996764 -0.00132539 5.3774e-23)
         0.69             (0.996756 0.00132921 -6.99185e-23)             (0.996756 -0.00132921 5.39144e-23)
        0.695             (0.996747 0.00133303 -7.00896e-23)             (0.996747 -0.00133303 5.40477e-23)
          0.7             (0.996738 0.00133686 -7.02205e-23)             (0.996738 -0.00133686 5.41508e-23)
        0.705             (0.996729 0.00134068 -7.03579e-23)             (0.996729 -0.00134068 5.42607e-23)
         0.71             (0.99672 0.00134448 -7.04652e-23)             (0.99672 -0.00134448 5.4352e-23)
        0.715             (0.996711 0.00134835 -7.07944e-23)             (0.996711 -0.00134835 5.45949e-23)
         0.72             (0.996703 0.00135228 -7.11865e-23)             (0.996703 -0.00135228 5.48818e-23)
        0.725             (0.996694 0.00135624 -7.13967e-23)             (0.996694 -0.00135624 5.50424e-23)
         0.73             (0.996685 0.00136021 -7.1591e-23)             (0.996685 -0.00136021 5.5192e-23)
        0.735             (0.996676 0.00136418 -7.18008e-23)             (0.996676 -0.00136418 5.53539e-23)
         0.74             (0.996667 0.00136816 -7.19632e-23)             (0.996667 -0.00136816 5.54794e-23)
        0.745             (0.996658 0.00137216 -7.21532e-23)             (0.996658 -0.00137216 5.56258e-23)
         0.75             (0.996648 0.00137616 -7.23356e-23)             (0.996648 -0.00137616 5.57666e-23)
        0.755             (0.996639 0.00138017 -7.25243e-23)             (0.996639 -0.00138017 5.59123e-23)
         0.76             (0.99663 0.0013842 -7.27219e-23)             (0.99663 -0.0013842 5.60647e-23)
        0.765             (0.996621 0.00138823 -7.29128e-23)             (0.996621 -0.00138823 5.62119e-23)
         0.77             (0.996612 0.00139228 -7.31306e-23)             (0.996612 -0.00139228 5.63797e-23)
        0.775             (0.996603 0.00139634 -7.3288e-23)             (0.996603 -0.00139634 5.65015e-23)
         0.78             (0.996593 0.00140041 -7.35064e-23)             (0.996593 -0.00140041 5.66693e-23)
        0.785             (0.996584 0.00140448 -7.37695e-23)             (0.996584 -0.00140448 5.68719e-23)
         0.79             (0.996575 0.00140857 -7.39775e-23)             (0.996575 -0.00140857 5.70322e-23)
        0.795             (0.996566 0.00141267 -7.41025e-23)             (0.996566 -0.00141267 5.71292e-23)
          0.8             (0.996556 0.00141678 -7.43379e-23)             (0.996556 -0.00141679 5.73095e-23)
        0.805             (0.996547 0.0014209 -7.4615e-23)             (0.996547 -0.0014209 5.75227e-23)
         0.81             (0.996537 0.00142502 -7.48189e-23)             (0.996537 -0.00142502 5.76796e-23)
        0.815             (0.996528 0.00142916 -7.50316e-23)             (0.996528 -0.00142916 5.7843e-23)
         0.82             (0.996519 0.0014333 -7.52583e-23)             (0.996519 -0.0014333 5.80178e-23)
        0.825             (0.996509 0.00143746 -7.54867e-23)             (0.996509 -0.00143746 5.81937e-23)
         0.83             (0.9965 0.00144163 -7.56405e-23)             (0.9965 -0.00144163 5.83127e-23)
        0.835             (0.99649 0.00144582 -7.58624e-23)             (0.99649 -0.00144582 5.84828e-23)
         0.84             (0.996481 0.00145001 -7.60729e-23)             (0.996481 -0.00145002 5.86451e-23)
        0.845             (0.996471 0.00145423 -7.62924e-23)             (0.996471 -0.00145423 5.88141e-23)
         0.85             (0.996461 0.00145845 -7.65201e-23)             (0.996461 -0.00145845 5.89892e-23)
        0.855             (0.996452 0.00146269 -7.67313e-23)             (0.996452 -0.00146269 5.91519e-23)
         0.86             (0.996442 0.00146694 -7.69872e-23)             (0.996442 -0.00146694 5.93481e-23)
        0.865             (0.996432 0.00147119 -7.72001e-23)             (0.996432 -0.00147119 5.95115e-23)
         0.87             (0.996423 0.00147546 -7.74356e-23)             (0.996423 -0.00147546 5.96914e-23)
        0.875             (0.996413 0.00147975 -7.76552e-23)             (0.996413 -0.00147975 5.98599e-23)
         0.88             (0.996403 0.00148405 -7.78698e-23)             (0.996403 -0.00148405 6.00238e-23)
        0.885             (0.996393 0.00148836 -7.80746e-23)             (0.996393 -0.00148836 6.01796e-23)
         0.89             (0.996383 0.0014927 -7.82568e-23)             (0.996383 -0.0014927 6.03164e-23)
        0.895             (0.996374 0.00149707 -7.83787e-23)             (0.996374 -0.00149708 6.04024e-23)
          0.9             (0.996364 0.00150145 -7.87088e-23)             (0.996364 -0.00150145 6.06552e-23)
        0.905             (0.996354 0.00150579 -7.91803e-23)             (0.996354 -0.00150579 6.10316e-23)
         0.91             (0.996344 0.0015101 -7.96832e-23)             (0.996344 -0.0015101 6.14404e-23)
        0.915             (0.996334 0.00151443 -7.98919e-23)             (0.996334 -0.00151443 6.16009e-23)
         0.92             (0.996324 0.00151877 -8.0131e-23)             (0.996324 -0.00151877 6.1784e-23)
        0.925             (0.996314 0.00152313 -8.04143e-23)             (0.996314 -0.00152313 6.20019e-23)
         0.93             (0.996304 0.00152751 -8.05728e-23)             (0.996304 -0.00152751 6.2124e-23)
        0.935             (0.996294 0.0015319 -8.0821e-23)             (0.996294 -0.0015319 6.23138e-23)
         0.94             (0.996284 0.0015363 -8.10744e-23)             (0.996284 -0.0015363 6.25089e-23)
        0.945             (0.996274 0.00154072 -8.13355e-23)             (0.996274 -0.00154072 6.27096e-23)
         0.95             (0.996264 0.00154516 -8.15977e-23)             (0.996264 -0.00154516 6.29112e-23)
        0.955             (0.996254 0.0015496 -8.18743e-23)             (0.996254 -0.00154961 6.3124e-23)
         0.96             (0.996243 0.00155407 -8.20682e-23)             (0.996243 -0.00155407 6.32736e-23)
        0.965             (0.996233 0.00155854 -8.23373e-23)             (0.996233 -0.00155854 6.34799e-23)
         0.97             (0.996223 0.00156303 -8.26175e-23)             (0.996223 -0.00156303 6.36957e-23)
        0.975             (0.996213 0.00156753 -8.28728e-23)             (0.996213 -0.00156754 6.38927e-23)
         0.98             (0.996202 0.00157205 -8.31335e-23)             (0.996202 -0.00157205 6.40927e-23)
        0.985             (0.996192 0.00157658 -8.3408e-23)             (0.996192 -0.00157658 6.43043e-23)
         0.99             (0.996182 0.00158112 -8.36893e-23)             (0.996182 -0.00158112 6.45208e-23)
        0.995             (0.996171 0.00158567 -8.4e-23)             (0.996171 -0.00158567 6.47601e-23)
            1             (0.996161 0.00159024 -8.41913e-23)             (0.996161 -0.00159024 6.49079e-23)
        1.005             (0.996151 0.00159483 -8.44659e-23)             (0.996151 -0.00159483 6.51188e-23)
         1.01             (0.99614 0.00159942 -8.47676e-23)             (0.99614 -0.00159942 6.53512e-23)
        1.015             (0.99613 0.00160403 -8.50735e-23)             (0.99613 -0.00160403 6.55865e-23)
         1.02             (0.996119 0.00160864 -8.53692e-23)             (0.996119 -0.00160864 6.58143e-23)
        1.025             (0.996109 0.00161327 -8.56791e-23)             (0.996109 -0.00161327 6.60528e-23)
         1.03             (0.996098 0.00161792 -8.59246e-23)             (0.996098 -0.00161792 6.62427e-23)
        1.035             (0.996087 0.00162258 -8.62473e-23)             (0.996087 -0.00162258 6.64906e-23)
         1.04             (0.996077 0.00162724 -8.65448e-23)             (0.996077 -0.00162724 6.672e-23)
        1.045             (0.996066 0.00163192 -8.68682e-23)             (0.996066 -0.00163192 6.6968e-23)
         1.05             (0.996056 0.00163661 -8.71685e-23)             (0.996056 -0.00163661 6.71996e-23)
        1.055             (0.996045 0.00164131 -8.7506e-23)             (0.996045 -0.00164131 6.74597e-23)
         1.06             (0.996034 0.00164603 -8.77669e-23)             (0.996034 -0.00164603 6.76617e-23)
        1.065             (0.996023 0.00165076 -8.79984e-23)             (0.996023 -0.00165076 6.78397e-23)
         1.07             (0.996013 0.0016555 -8.83447e-23)             (0.996013 -0.0016555 6.81058e-23)
        1.075             (0.996002 0.00166024 -8.87137e-23)             (0.996002 -0.00166024 6.83889e-23)
         1.08             (0.995991 0.001665 -8.90357e-23)             (0.995991 -0.001665 6.86377e-23)
        1.085             (0.99598 0.00166976 -8.93462e-23)             (0.99598 -0.00166976 6.88764e-23)
         1.09             (0.995969 0.00167454 -8.96764e-23)             (0.995969 -0.00167454 6.91303e-23)
        1.095             (0.995958 0.00167933 -9.0045e-23)             (0.995958 -0.00167933 6.94143e-23)
          1.1             (0.995947 0.00168414 -9.03022e-23)             (0.995947 -0.00168414 6.96132e-23)
        1.105             (0.995937 0.00168895 -9.0648e-23)             (0.995937 -0.00168895 6.9879e-23)
         1.11             (0.995926 0.00169378 -9.09763e-23)             (0.995926 -0.00169378 7.0132e-23)
        1.115             (0.995915 0.00169862 -9.13072e-23)             (0.995915 -0.00169862 7.0387e-23)
         1.12             (0.995904 0.00170347 -9.16416e-23)             (0.995904 -0.00170347 7.06447e-23)
        1.125             (0.995892 0.00170834 -9.19742e-23)             (0.995892 -0.00170834 7.09011e-23)
         1.13             (0.995881 0.00171321 -9.23134e-23)             (0.995881 -0.00171321 7.11624e-23)
        1.135             (0.99587 0.0017181 -9.26576e-23)             (0.99587 -0.0017181 7.14276e-23)
         1.14             (0.995859 0.001723 -9.30104e-23)             (0.995859 -0.00172301 7.16994e-23)
        1.145             (0.995848 0.00172792 -9.33851e-23)             (0.995848 -0.00172792 7.1988e-23)
         1.15             (0.995837 0.00173284 -9.37617e-23)             (0.995837 -0.00173284 7.22781e-23)
        1.155             (0.995826 0.00173778 -9.39968e-23)             (0.995826 -0.00173778 7.246e-23)
         1.16             (0.995814 0.00174274 -9.43533e-23)             (0.995814 -0.00174274 7.27343e-23)
        1.165             (0.995803 0.0017477 -9.47531e-23)             (0.995803 -0.0017477 7.30423e-23)
         1.17             (0.995792 0.00175268 -9.50859e-23)             (0.995792 -0.00175268 7.32996e-23)
        1.175             (0.995781 0.00175768 -9.539e-23)             (0.995781 -0.00175768 7.35338e-23)
         1.18             (0.995769 0.00176268 -9.58322e-23)             (0.995769 -0.00176268 7.38739e-23)
        1.185             (0.995758 0.0017677 -9.60537e-23)             (0.995758 -0.0017677 7.40455e-23)
         1.19             (0.995746 0.00177273 -9.64368e-23)             (0.995746 -0.00177273 7.434e-23)
        1.195             (0.995735 0.00177777 -9.68211e-23)             (0.995735 -0.00177777 7.46362e-23)
          1.2             (0.995724 0.00178282 -9.71675e-23)             (0.995724 -0.00178282 7.49038e-23)
        1.205             (0.995712 0.00178789 -9.75037e-23)             (0.995712 -0.00178789 7.51645e-23)
         1.21             (0.995701 0.00179297 -9.80056e-23)             (0.995701 -0.00179297 7.55487e-23)
        1.215             (0.995689 0.00179806 -9.8326e-23)             (0.995689 -0.00179806 7.57931e-23)
         1.22             (0.995678 0.00180315 -9.87054e-23)             (0.995678 -0.00180315 7.60853e-23)
        1.225             (0.995666 0.00180826 -9.90789e-23)             (0.995666 -0.00180826 7.63734e-23)
         1.23             (0.995654 0.00181339 -9.94707e-23)             (0.995654 -0.00181339 7.66754e-23)
        1.235             (0.995643 0.00181854 -9.97725e-23)             (0.995643 -0.00181854 7.69089e-23)
         1.24             (0.995631 0.00182369 -1.00169e-22)             (0.995631 -0.0018237 7.72145e-23)
        1.245             (0.995619 0.00182885 -1.00625e-22)             (0.995619 -0.00182885 7.75659e-23)
         1.25             (0.995608 0.00183399 -1.01132e-22)             (0.995608 -0.00183399 7.79561e-23)
        1.255             (0.995596 0.00183915 -1.01598e-22)             (0.995596 -0.00183915 7.83144e-23)
         1.26             (0.995584 0.00184432 -1.01829e-22)             (0.995584 -0.00184432 7.84932e-23)
        1.265             (0.995572 0.00184951 -1.02193e-22)             (0.995572 -0.00184951 7.87743e-23)
         1.27             (0.995561 0.00185472 -1.02577e-22)             (0.995561 -0.00185472 7.90701e-23)
        1.275             (0.995549 0.00185994 -1.02957e-22)             (0.995549 -0.00185994 7.93628e-23)
         1.28             (0.995537 0.00186518 -1.03326e-22)             (0.995537 -0.00186518 7.96478e-23)
        1.285             (0.995525 0.00187043 -1.0377e-22)             (0.995525 -0.00187043 7.99888e-23)
         1.29             (0.995513 0.00187567 -1.04237e-22)             (0.995513 -0.00187567 8.03468e-23)
        1.295             (0.995501 0.00188093 -1.04657e-22)             (0.995501 -0.00188093 8.06697e-23)
          1.3             (0.995489 0.0018862 -1.05055e-22)             (0.995489 -0.0018862 8.09768e-23)
        1.305             (0.995477 0.00189148 -1.05456e-22)             (0.995477 -0.00189149 8.1286e-23)
         1.31             (0.995465 0.00189678 -1.05876e-22)             (0.995465 -0.00189678 8.16095e-23)
        1.315             (0.995453 0.00190209 -1.06289e-22)             (0.995453 -0.00190209 8.19268e-23)
         1.32             (0.995441 0.0019074 -1.06742e-22)             (0.995441 -0.00190741 8.22747e-23)
        1.325             (0.995429 0.00191273 -1.07205e-22)             (0.995429 -0.00191273 8.26305e-23)
         1.33             (0.995417 0.00191807 -1.07495e-22)             (0.995417 -0.00191807 8.28541e-23)
        1.335             (0.995405 0.00192343 -1.07881e-22)             (0.995405 -0.00192343 8.31504e-23)
         1.34             (0.995392 0.0019288 -1.08296e-22)             (0.995392 -0.0019288 8.3469e-23)
        1.345             (0.99538 0.00193419 -1.08675e-22)             (0.99538 -0.00193419 8.37584e-23)
         1.35             (0.995368 0.00193959 -1.08971e-22)             (0.995368 -0.00193959 8.39824e-23)
        1.355             (0.995356 0.00194502 -1.09448e-22)             (0.995356 -0.00194502 8.43414e-23)
         1.36             (0.995343 0.00195046 -1.09781e-22)             (0.995343 -0.00195046 8.4592e-23)
        1.365             (0.995331 0.00195586 -1.10409e-22)             (0.995331 -0.00195587 8.50976e-23)
         1.37             (0.995319 0.00196121 -1.11139e-22)             (0.995319 -0.00196121 8.56946e-23)
        1.375             (0.995306 0.00196655 -1.11521e-22)             (0.995306 -0.00196655 8.59963e-23)
         1.38             (0.995294 0.00197185 -1.11783e-22)             (0.995294 -0.00197185 8.62115e-23)
        1.385             (0.995282 0.00197724 -1.12346e-22)             (0.995282 -0.00197724 8.66304e-23)