/*--------------------------------*- C++ -*----------------------------------*\
  =========                 |
  \\      /  F ield         | OpenFOAM: The Open Source CFD Toolbox
   \\    /   O peration     | Website:  https://openfoam.org
    \\  /    A nd           | Version:  7
     \\/     M anipulation  |
\*---------------------------------------------------------------------------*/
FoamFile
{
    version     2.0;
    format      ascii;
    class       volScalarField;
    location    "0.5";
    object      p;
}
// * * * * * * * * * * * * * * * * * * * * * * * * * * * * * * * * * * * * * //

dimensions      [0 2 -2 0 0 0 0];

internalField   nonuniform List<scalar> 
3200
(
-6.35074e-07
-0.0026343
-0.00940955
-0.0190428
-0.0299239
-0.040844
-0.0509153
-0.0594905
-0.0661169
-0.0704946
-0.0724424
-0.0718705
-0.0687598
-0.0631444
-0.0550986
-0.0447257
-0.0321491
-0.0175054
-0.000937908
0.0174071
0.0373845
0.0588532
0.081678
0.105731
0.130894
0.157056
0.184118
0.211987
0.240584
0.269835
0.299678
0.330056
0.360921
0.392232
0.423953
0.456054
0.488509
0.521295
0.554392
0.58778
0.621443
0.655361
0.689513
0.723878
0.758429
0.793133
0.827953
0.862843
0.897749
0.932608
0.967343
1.00187
1.03608
1.06986
1.10308
1.1356
1.16726
1.19787
1.22724
1.25518
1.28147
1.30589
1.32821
1.34822
1.36569
1.38044
1.39227
1.40106
1.40669
1.40914
1.40842
1.40467
1.3981
1.3891
1.37821
1.36619
1.35407
1.34325
1.33555
1.33247
0.00262754
-9.35903e-06
-0.00556705
-0.0131507
-0.0216687
-0.0302316
-0.0381318
-0.0448193
-0.049884
-0.053036
-0.0540842
-0.0529173
-0.0494883
-0.0438004
-0.0358959
-0.0258462
-0.0137444
0.000301697
0.0161747
0.0337522
0.05291
0.0735254
0.095479
0.118656
0.142949
0.168256
0.194483
0.221545
0.249363
0.277867
0.306994
0.336686
0.366896
0.397577
0.428692
0.460205
0.492088
0.52431
0.556848
0.589676
0.622772
0.656109
0.689662
0.723403
0.757298
0.791311
0.825398
0.85951
0.893588
0.927566
0.961366
0.9949
1.02807
1.06076
1.09284
1.12418
1.15463
1.18402
1.21217
1.2389
1.26403
1.28735
1.30867
1.3278
1.34455
1.35877
1.37032
1.37908
1.385
1.38807
1.38834
1.38597
1.38118
1.37434
1.36593
1.35661
1.34721
1.33874
1.33246
1.32939
0.00942628
0.00553042
-7.16203e-05
-0.00686769
-0.0142236
-0.0214762
-0.0280644
-0.0335381
-0.0375473
-0.0398325
-0.0402139
-0.038579
-0.0348712
-0.0290786
-0.0212256
-0.0113644
0.000431659
0.0140741
0.0294639
0.0464956
0.0650607
0.0850501
0.106356
0.128876
0.152508
0.17716
0.202743
0.229175
0.256381
0.284293
0.312848
0.341989
0.371666
0.401832
0.432448
0.463475
0.494881
0.526633
0.558703
0.591062
0.623681
0.656534
0.689587
0.72281
0.756165
0.789612
0.823105
0.85659
0.890007
0.923289
0.956356
0.989121
1.02149
1.05334
1.08457
1.11503
1.14458
1.17307
1.20034
1.22621
1.25051
1.27307
1.2937
1.31225
1.32854
1.34244
1.35384
1.36264
1.36882
1.37237
1.37337
1.37195
1.36835
1.36287
1.35595
1.34812
1.34005
1.3325
1.32618
1.32168
0.019193
0.0131466
0.00661576
-0.000269242
-0.00730673
-0.0139992
-0.0199033
-0.0246653
-0.028002
-0.0296964
-0.0295938
-0.0275941
-0.023644
-0.0177288
-0.00986573
-9.69944e-05
0.0115156
0.0248958
0.039957
0.0566055
0.0747442
0.0942745
0.115098
0.137119
0.160246
0.184389
0.209465
0.235398
0.262113
0.289544
0.31763
0.346315
0.375548
0.405281
0.435474
0.466085
0.497081
0.528427
0.560092
0.592043
0.624251
0.656683
0.689306
0.722085
0.754981
0.78795
0.820945
0.853911
0.886786
0.919503
0.951983
0.98414
1.01588
1.04709
1.07766
1.10745
1.13634
1.16418
1.19081
1.21608
1.23982
1.26186
1.28204
1.30022
1.31624
1.32998
1.34133
1.35023
1.35664
1.36057
1.36208
1.3613
1.35843
1.35374
1.34758
1.34038
1.33266
1.32502
1.31768
1.31077
0.0304085
0.021804
0.0139039
0.00648102
-0.000676628
-0.00720705
-0.0127676
-0.0170952
-0.019974
-0.0212339
-0.0207513
-0.0184459
-0.0142747
-0.00822684
-0.000318414
0.00941277
0.0209117
0.03411
0.04893
0.0652872
0.083093
0.102257
0.12269
0.144301
0.167006
0.19072
0.215365
0.240866
0.267154
0.294163
0.321834
0.350111
0.378943
0.408283
0.438088
0.468318
0.498934
0.529902
0.561189
0.59276
0.624582
0.656622
0.688845
0.721213
0.753686
0.786218
0.818761
0.851259
0.883652
0.91587
0.947838
0.979469
1.01067
1.04134
1.07136
1.10062
1.12898
1.1563
1.18244
1.20724
1.23055
1.25223
1.27211
1.29004
1.30591
1.31958
1.33096
1.33999
1.34662
1.35087
1.35278
1.35247
1.35009
1.34587
1.34007
1.33304
1.32519
1.31696
1.3081
1.29836
0.041932
0.0306476
0.0211465
0.0128955
0.00531151
-0.00135006
-0.00682905
-0.0109435
-0.0135411
-0.0144986
-0.0137267
-0.0111684
-0.00679609
-0.00060767
0.00737709
0.0171203
0.0285696
0.0416611
0.0563227
0.0724761
0.0900393
0.108929
0.12906
0.15035
0.172717
0.196083
0.220373
0.245515
0.271442
0.298091
0.325404
0.353326
0.381805
0.410796
0.440254
0.470138
0.500411
0.531035
0.561975
0.593197
0.624666
0.656347
0.688203
0.720197
0.752286
0.784425
0.816564
0.84865
0.88062
0.912407
0.943936
0.975126
1.00588
1.03611
1.0657
1.09453
1.12248
1.14941
1.17519
1.19967
1.22271
1.24415
1.26385
1.28167
1.29749
1.31119
1.32266
1.33185
1.33872
1.34325
1.34548
1.34549
1.34341
1.3394
1.33369
1.3265
1.31816
1.30901
1.29839
1.28572
0.052907
0.0389732
0.0277695
0.0185094
0.0102883
0.00328177
-0.00231505
-0.00638981
-0.0088478
-0.00961058
-0.0086232
-0.00585445
-0.00129499
0.00504495
0.0131381
0.0229429
0.034406
0.0474648
0.0620499
0.0780869
0.0954979
0.114204
0.134125
0.155183
0.1773
0.200401
0.224415
0.249274
0.274911
0.301266
0.328282
0.355906
0.384086
0.412776
0.441932
0.471514
0.501482
0.531799
0.56243
0.593338
0.624489
0.655848
0.687376
0.719035
0.750783
0.782575
0.814363
0.846091
0.877701
0.909126
0.940294
0.971124
1.00153
1.03141
1.06067
1.08919
1.11685
1.14353
1.16908
1.19338
1.21627
1.23761
1.25727
1.2751
1.29099
1.3048
1.31644
1.32584
1.33295
1.33774
1.34023
1.34046
1.33853
1.33456
1.32869
1.32111
1.31206
1.30179
1.28932
1.27377
0.0626716
0.0461964
0.0332757
0.0229136
0.0139294
0.00644011
0.000590886
-0.00356462
-0.00598253
-0.00662578
-0.00547286
-0.00251888
0.00222545
0.00873519
0.0169729
0.0268903
0.0384305
0.0515296
0.0661183
0.0821236
0.0994703
0.118082
0.137882
0.158795
0.180747
0.203667
0.227484
0.252132
0.27755
0.303678
0.330459
0.357841
0.385774
0.414214
0.443115
0.472437
0.502141
0.532191
0.562549
0.59318
0.62405
0.655122
0.686359
0.717724
0.749173
0.780664
0.812149
0.843574
0.874883
0.90601
0.936888
0.967438
0.997576
1.02721
1.05624
1.08456
1.11204
1.13858
1.16403
1.18827
1.21114
1.23252
1.25226
1.27023
1.28628
1.30031
1.3122
1.32187
1.32925
1.3343
1.33701
1.33741
1.33554
1.33148
1.32533
1.31719
1.3073
1.29581
1.28148
1.26321
0.0707089
0.0518318
0.037231
0.0257349
0.015924
0.00787369
0.00169112
-0.00261916
-0.00505767
-0.005625
-0.00433135
-0.00119797
0.00374355
0.010452
0.0188779
0.0289641
0.0406478
0.0538615
0.0685343
0.0845927
0.101962
0.120568
0.140335
0.16119
0.183061
0.205879
0.229577
0.25409
0.279358
0.305323
0.331931
0.359129
0.38687
0.415108
0.443801
0.472907
0.502389
0.532209
0.562332
0.592723
0.623348
0.65417
0.685153
0.716261
0.747453
0.778686
0.809915
0.841088
0.872151
0.903042
0.933696
0.964038
0.993988
1.02346
1.05235
1.08057
1.10799
1.1345
1.15997
1.18426
1.20725
1.22879
1.24873
1.26694
1.28329
1.29763
1.30985
1.31986
1.32757
1.33291
1.33586
1.3364
1.33454
1.33032
1.32381
1.31505
1.30424
1.29151
1.27537
1.25455
0.0766069
0.0554724
0.0392546
0.0266312
0.0159743
0.00732946
0.000775349
-0.00372466
-0.00620992
-0.00671521
-0.00528066
-0.00195307
0.00321469
0.0101642
0.0188322
0.0291513
0.0410509
0.0544582
0.0692986
0.0854968
0.102977
0.121666
0.141488
0.162371
0.184245
0.207043
0.230699
0.255151
0.280339
0.306208
0.332703
0.359775
0.387376
0.415463
0.443994
0.472928
0.502228
0.531858
0.561784
0.591971
0.622385
0.652992
0.683759
0.714647
0.74562
0.776637
0.807654
0.838623
0.869492
0.900204
0.930697
0.960899
0.990736
1.02012
1.04897
1.07717
1.10463
1.13122
1.15682
1.18129
1.20451
1.22633
1.24661
1.26519
1.28193
1.2967
1.30936
1.3198
1.32791
1.3336
1.33681
1.3375
1.33565
1.33127
1.32437
1.31496
1.30322
1.28926
1.27138
1.24818
0.0800257
0.056769
0.0390081
0.0252887
0.0137972
0.00455849
-0.00237051
-0.0070615
-0.00958831
-0.0100171
-0.00841639
-0.00485805
0.000583543
0.00783192
0.016809
0.0274356
0.039632
0.0533183
0.0684151
0.0848438
0.102527
0.121389
0.141355
0.162354
0.184316
0.207175
0.230867
0.25533
0.280508
0.306344
0.332788
0.359791
0.387306
0.415291
0.443705
0.47251
0.501669
0.531148
0.560913
0.59093
0.621169
0.651596
0.68218
0.712885
0.743676
0.774515
0.805361
0.836171
0.866896
0.897482
0.92787
0.957997
0.987789
1.01717
1.04605
1.07433
1.10192
1.12869
1.15452
1.1793
1.20286
1.22509
1.24581
1.26489
1.28216
1.29748
1.31069
1.32166
1.33026
1.33639
1.33993
1.34083
1.33903
1.3345
1.32723
1.31719
1.30454
1.28939
1.26986
1.24442
0.0806739
0.055413
0.0361839
0.021414
0.00912135
-0.000684081
-0.0079623
-0.0128159
-0.01535
-0.0156604
-0.013843
-0.00999448
-0.00421125
0.00341143
0.0127796
0.023801
0.0363855
0.050445
0.0658939
0.0826492
0.10063
0.119759
0.139962
0.161165
0.1833
0.206301
0.230106
0.254654
0.279889
0.305758
0.332211
0.3592
0.386681
0.414613
0.442956
0.471674
0.500731
0.530095
0.559734
0.589616
0.619712
0.649992
0.680425
0.71098
0.741623
0.772321
0.803036
0.833728
0.864352
0.894861
0.925199
0.955307
0.98512
1.01456
1.04355
1.072
1.0998
1.12685
1.15303
1.17821
1.20224
1.22499
1.2463
1.266
1.28394
1.29993
1.31383
1.32546
1.33467
1.34133
1.34531
1.3465
1.34482
1.34021
1.33261
1.32199
1.30848
1.29219
1.27109
1.24353
0.0782908
0.0511217
0.0304941
0.014727
0.0016822
-0.00864152
-0.0162182
-0.0211789
-0.0236585
-0.0237813
-0.0216707
-0.0174486
-0.0112339
-0.00314195
0.00671646
0.0182348
0.0313113
0.0458485
0.0617536
0.0789381
0.0973176
0.116812
0.137344
0.158842
0.181236
0.204462
0.228456
0.253161
0.278522
0.304486
0.331006
0.358036
0.385534
0.413458
0.441774
0.470444
0.499437
0.528722
0.558268
0.588048
0.618032
0.648195
0.678508
0.708943
0.739471
0.770061
0.800679
0.831291
0.861856
0.892331
0.922668
0.952812
0.982702
1.01227
1.04144
1.07013
1.09824
1.12566
1.15228
1.17797
1.20259
1.226
1.24802
1.26848
1.28722
1.30404
1.31876
1.3312
1.34117
1.3485
1.35304
1.35464
1.35319
1.34858
1.34074
1.3296
1.3153
1.29795
1.27534
1.24575
0.0726322
0.0436262
0.0216605
0.0049527
-0.00878358
-0.019559
-0.0273606
-0.0323468
-0.0346823
-0.0345206
-0.032013
-0.0273079
-0.0205483
-0.0118703
-0.00140337
0.0107307
0.0244172
0.0395484
0.0560235
0.0737477
0.0926322
0.112593
0.133553
0.155438
0.178178
0.201709
0.225969
0.250903
0.276455
0.302576
0.32922
0.356343
0.383904
0.411867
0.440195
0.468857
0.497821
0.527059
0.556544
0.58625
0.616152
0.646225
0.676446
0.706789
0.73723
0.767742
0.798296
0.828861
0.859404
0.889886
0.920265
0.950493
0.980516
1.01027
1.03969
1.06869
1.09718
1.12507
1.15223
1.17855
1.20387
1.22805
1.25092
1.27229
1.29199
1.30979
1.32551
1.33891
1.34981
1.35798
1.36324
1.3654
1.36431
1.35983
1.35186
1.3403
1.32529
1.30692
1.28287
1.25132
0.0634584
0.0326593
0.00940375
-0.00818705
-0.0225444
-0.0336878
-0.041618
-0.0465218
-0.0485949
-0.0480219
-0.0449843
-0.0396588
-0.0322142
-0.0228098
-0.0115947
0.0012924
0.0157228
0.0315776
0.0487471
0.0671297
0.0866319
0.107167
0.128654
0.151019
0.174193
0.19811
0.222712
0.247943
0.27375
0.300087
0.326909
0.354174
0.381845
0.409887
0.438266
0.466953
0.495921
0.525143
0.554595
0.584254
0.614099
0.644108
0.674261
0.704538
0.734917
0.765377
0.795895
0.826444
0.856997
0.887521
0.917982
0.948338
0.978542
1.00854
1.03827
1.06765
1.09661
1.12504
1.15284
1.17988
1.20602
1.23111
1.25497
1.2774
1.29822
1.31718
1.33407
1.34864
1.36065
1.36986
1.37602
1.37893
1.37837
1.37419
1.36622
1.35436
1.33872
1.31942
1.29397
1.26046
0.0505234
0.017945
-0.00656601
-0.0249825
-0.0398809
-0.0512911
-0.0592291
-0.0639136
-0.0655745
-0.0644308
-0.0606976
-0.0545831
-0.0462846
-0.0359867
-0.0238603
-0.0100626
0.00526272
0.0219848
0.0399843
0.059153
0.0793921
0.100611
0.122729
0.145669
0.169363
0.193748
0.218764
0.244359
0.270483
0.297091
0.324141
0.351594
0.379416
0.407574
0.43604
0.464784
0.493784
0.523017
0.55246
0.582096
0.611906
0.641873
0.671981
0.702213
0.732552
0.762984
0.793489
0.824048
0.854639
0.885237
0.915815
0.946337
0.976766
1.00705
1.03714
1.06697
1.09646
1.12552
1.15405
1.18193
1.209
1.23513
1.26012
1.28378
1.30589
1.32621
1.34448
1.36042
1.37377
1.38423
1.39154
1.3954
1.39559
1.39189
1.38409
1.37206
1.3559
1.33573
1.30891
1.27344
0.0335642
-0.000812958
-0.0265606
-0.0457454
-0.061094
-0.0726492
-0.0804468
-0.0847419
-0.0858046
-0.0838936
-0.0792624
-0.072155
-0.0628011
-0.0514134
-0.0381871
-0.0232992
-0.00690946
0.0108383
0.0298154
0.0499062
0.0710074
0.093026
0.115878
0.139489
0.16379
0.188719
0.214221
0.240243
0.266741
0.293671
0.320994
0.348677
0.376687
0.404996
0.433577
0.462406
0.491463
0.520729
0.550186
0.579818
0.609613
0.639555
0.669635
0.69984
0.730159
0.76058
0.791093
0.821683
0.852337
0.883036
0.91376
0.944482
0.975173
1.00579
1.0363
1.06663
1.09672
1.12649
1.15584
1.18464
1.21278
1.24007
1.26635
1.2914
1.315
1.33687
1.35674
1.3743
1.38924
1.40123
1.40993
1.41502
1.4162
1.4132
1.40578
1.39374
1.37718
1.35621
1.32803
1.29056
0.0122893
-0.0239435
-0.0509259
-0.0708206
-0.0865142
-0.0980675
-0.105542
-0.109239
-0.109475
-0.106556
-0.100782
-0.0924378
-0.0817905
-0.0690844
-0.0545413
-0.0383599
-0.0207172
-0.00176995
0.0183434
0.0395008
0.0615946
0.0845299
0.108222
0.132598
0.157589
0.183138
0.20919
0.235699
0.262622
0.28992
0.317558
0.345506
0.373736
0.402223
0.430945
0.459881
0.489016
0.518334
0.54782
0.577465
0.607259
0.637192
0.667257
0.697449
0.727762
0.758189
0.788726
0.819366
0.850101
0.880922
0.911816
0.942767
0.973753
1.00475
1.03571
1.0666
1.09735
1.1279
1.15815
1.18799
1.21729
1.24589
1.27361
1.30023
1.32551
1.34916
1.37088
1.39033
1.40715
1.42096
1.43137
1.43799
1.44046
1.43844
1.43162
1.41977
1.40295
1.38125
1.35171
1.31214
-0.0136347
-0.0518228
-0.0800562
-0.100599
-0.116512
-0.127884
-0.134812
-0.137651
-0.13678
-0.132562
-0.12535
-0.115479
-0.103259
-0.0889702
-0.0728632
-0.0551602
-0.0360562
-0.0157209
0.00569825
0.0280735
0.0512943
0.0752649
0.0999021
0.125133
0.150896
0.177133
0.203797
0.230845
0.258238
0.285943
0.31393
0.342172
0.370648
0.399335
0.428217
0.457278
0.486505
0.515888
0.545417
0.575086
0.604889
0.634823
0.664885
0.695074
0.72539
0.755834
0.786407
0.817109
0.847941
0.8789
0.909985
0.941187
0.972495
1.00389
1.03535
1.06684
1.09831
1.1297
1.16093
1.1919
1.22249
1.25253
1.28185
1.31022
1.33739
1.36307
1.38692
1.40855
1.42758
1.44356
1.45603
1.46455
1.46865
1.46794
1.46202
1.45058
1.43366
1.41132
1.3804
1.33861
-0.0445987
-0.084892
-0.114412
-0.135531
-0.151512
-0.162479
-0.16858
-0.170243
-0.167921
-0.162048
-0.153046
-0.141306
-0.127188
-0.111011
-0.0930609
-0.0735827
-0.0527895
-0.0308635
-0.00795992
0.0157896
0.0402735
0.065397
0.0910799
0.117254
0.14386
0.170849
0.198178
0.225808
0.253709
0.281853
0.310215
0.338774
0.367513
0.396416
0.425471
0.454667
0.483997
0.513453
0.543032
0.572731
0.60255
0.63249
0.662554
0.692747
0.723073
0.753541
0.784157
0.81493
0.845868
0.876978
0.908266
0.939736
0.971386
1.00321
1.0352
1.06733
1.09957
1.13186
1.16415
1.19634
1.22831
1.25993
1.29101
1.32133
1.35062
1.37858
1.40484
1.429
1.4506
1.46914
1.4841
1.49493
1.5011
1.50208
1.49741
1.48667
1.46985
1.44696
1.41464
1.37044
-0.0810718
-0.12368
-0.154541
-0.17615
-0.192005
-0.202286
-0.207209
-0.207298
-0.203101
-0.195145
-0.183929
-0.169916
-0.153521
-0.135111
-0.115004
-0.0934706
-0.070742
-0.0470107
-0.0224372
0.0028454
0.0287271
0.0551172
0.0819409
0.109136
0.136652
0.164446
0.192482
0.22073
0.249167
0.277771
0.306525
0.335414
0.364427
0.393554
0.422787
0.452123
0.481558
0.51109
0.54072
0.570452
0.600288
0.630236
0.660304
0.690501
0.72084
0.751334
0.781996
0.812844
0.843893
0.87516
0.90666
0.938408
0.970415
1.00269
1.03523
1.06803
1.10107
1.13432
1.16773
1.20122
1.23469
1.26802
1.30101
1.33347
1.36512
1.39564
1.42464
1.45169
1.47628
1.49784
1.51577
1.52942
1.53815
1.54131
1.53831
1.52862
1.51214
1.48883
1.45505
1.40823
-0.123627
-0.168832
-0.201109
-0.223095
-0.238572
-0.247802
-0.251101
-0.249118
-0.242525
-0.231963
-0.218029
-0.201268
-0.182161
-0.161125
-0.138512
-0.11462
-0.0896942
-0.0639339
-0.0375021
-0.0105293
0.0168799
0.0446424
0.0726922
0.100977
0.129456
0.158095
0.18687
0.21576
0.244749
0.273824
0.302977
0.332199
0.361487
0.390837
0.420248
0.44972
0.479257
0.508861
0.538539
0.568299
0.598149
0.628101
0.65817
0.688369
0.718718
0.749235
0.779943
0.810864
0.842024
0.873448
0.905162
0.937192
0.969562
1.00229
1.0354
1.06889
1.10277
1.13702
1.1716
1.20647
1.24154
1.27669
1.31177
1.34656
1.38081
1.41418
1.44628
1.47662
1.50466
1.52976
1.55122
1.56829
1.58019
1.58612
1.58532
1.57713
1.5613
1.53773
1.50243
1.45269
-0.172979
-0.221149
-0.254933
-0.277139
-0.291902
-0.299605
-0.300706
-0.296023
-0.286389
-0.272586
-0.255333
-0.23527
-0.212953
-0.188849
-0.16335
-0.136774
-0.109376
-0.0813589
-0.0528824
-0.0240691
0.00498714
0.0342154
0.0635627
0.0929903
0.12247
0.151982
0.181512
0.211052
0.240596
0.270142
0.299688
0.329237
0.358791
0.388355
0.417933
0.447531
0.477159
0.506826
0.536542
0.566321
0.596176
0.626125
0.656186
0.68638
0.716732
0.747266
0.778012
0.809001
0.840266
0.871842
0.903765
0.936074
0.968806
1.002
1.03568
1.06987
1.10461
1.13988
1.17569
1.212
1.24875
1.28584
1.32315
1.36048
1.39757
1.4341
1.46966
1.50374
1.53575
1.56498
1.59064
1.61184
1.62763
1.63705
1.63913
1.633
1.61825
1.59462
1.55774
1.50471
-0.230026
-0.281642
-0.317038
-0.339233
-0.352821
-0.358365
-0.356525
-0.348344
-0.334868
-0.317055
-0.295769
-0.271761
-0.245667
-0.218009
-0.189212
-0.159608
-0.129458
-0.0989604
-0.0682621
-0.0374714
-0.00666501
0.0241042
0.0548015
0.0854059
0.115906
0.146299
0.176584
0.206767
0.236854
0.266855
0.296778
0.326635
0.356436
0.386194
0.415919
0.445626
0.475329
0.505041
0.53478
0.564562
0.594409
0.624341
0.654382
0.68456
0.714902
0.745442
0.776215
0.80726
0.838618
0.870334
0.902456
0.935033
0.968117
1.00176
1.03601
1.07091
1.1065
1.14282
1.17988
1.21768
1.25618
1.29532
1.335
1.37504
1.41523
1.45523
1.49465
1.53295
1.56951
1.60355
1.63417
1.66034
1.68092
1.69473
1.70055
1.69721
1.68409
1.66071
1.6222
1.56539
-0.295926
-0.351606
-0.388716
-0.410556
-0.422324
-0.424858
-0.419104
-0.406412
-0.388098
-0.365343
-0.339181
-0.310488
-0.279984
-0.248241
-0.215709
-0.182728
-0.14955
-0.116359
-0.0832794
-0.0503962
-0.0177606
0.0146
0.0466752
0.0784667
0.109984
0.141244
0.172264
0.203064
0.233667
0.264092
0.294361
0.324495
0.354513
0.384435
0.414281
0.44407
0.473821
0.503556
0.533296
0.563063
0.592882
0.622779
0.652784
0.682927
0.713245
0.743774
0.774558
0.805641
0.837075
0.868914
0.901215
0.934041
0.967457
1.00153
1.03633
1.07192
1.10837
1.14573
1.18405
1.22336
1.26367
1.30494
1.34711
1.39005
1.43356
1.47736
1.52104
1.56409
1.60584
1.64545
1.68191
1.71405
1.74052
1.75985
1.77049
1.77093
1.76019
1.73751
1.69731
1.63614
-0.372186
-0.432724
-0.471626
-0.492581
-0.501616
-0.499982
-0.489033
-0.470533
-0.446146
-0.417324
-0.385299
-0.35108
-0.315466
-0.279072
-0.242357
-0.205653
-0.169189
-0.133116
-0.0975261
-0.0624675
-0.027956
0.00601422
0.0394641
0.0724237
0.104929
0.137018
0.168729
0.200102
0.231172
0.261976
0.292545
0.322912
0.353105
0.383153
0.413082
0.442918
0.472688
0.502416
0.532129
0.561855
0.591622
0.621462
0.651408
0.681497
0.711768
0.742266
0.773038
0.804138
0.835624
0.867559
0.900013
0.933059
0.966777
1.00125
1.03657
1.07282
1.11009
1.14848
1.18805
1.22888
1.27102
1.31448
1.35924
1.40522
1.45228
1.50017
1.54854
1.59688
1.6445
1.69054
1.73388
1.77319
1.80687
1.83313
1.85002
1.85554
1.84824
1.82689
1.78502
1.71874
-0.46081
-0.527221
-0.56792
-0.587164
-0.59215
-0.584752
-0.566913
-0.540947
-0.50896
-0.472726
-0.433695
-0.393008
-0.351532
-0.309902
-0.268563
-0.227812
-0.187836
-0.148735
-0.110549
-0.0732758
-0.0368847
-0.00132697
0.033457
0.0675316
0.100963
0.133815
0.166151
0.198028
0.2295
0.260619
0.291428
0.321971
0.352286
0.382411
0.412378
0.44222
0.471968
0.501654
0.531308
0.560962
0.590649
0.620404
0.650266
0.680274
0.710473
0.740913
0.771647
0.802735
0.834242
0.866242
0.898812
0.932041
0.96602
1.00085
1.03664
1.07351
1.11156
1.15092
1.19171
1.23403
1.27799
1.32365
1.37106
1.4202
1.471
1.52327
1.57673
1.63091
1.68515
1.73856
1.78996
1.83784
1.88036
1.91535
1.94034
1.9527
1.95033
1.93129
1.88785
1.81552
-0.564513
-0.638091
-0.680424
-0.696649
-0.695667
-0.680299
-0.653317
-0.617767
-0.576302
-0.531064
-0.483727
-0.435546
-0.387424
-0.339978
-0.293604
-0.248534
-0.204878
-0.162662
-0.121853
-0.0823842
-0.0441634
-0.0070892
0.0289441
0.0640413
0.0983027
0.131823
0.164688
0.196979
0.228768
0.26012
0.291094
0.321744
0.352118
0.38226
0.412211
0.44201
0.471693
0.501295
0.530852
0.560399
0.589973
0.619612
0.649358
0.679256
0.709353
0.739704
0.770367
0.801409
0.832901
0.864924
0.897567
0.930928
0.965114
1.00024
1.03644
1.07385
1.11261
1.15288
1.19482
1.23857
1.2843
1.33214
1.3822
1.43457
1.48923
1.54613
1.60505
1.66561
1.72724
1.78905
1.84983
1.90793
1.96127
2.00725
2.04277
2.06438
2.06906
2.05384
2.00915
1.92956
-0.687067
-0.769441
-0.812895
-0.824007
-0.814227
-0.787812
-0.748699
-0.700877
-0.647651
-0.591558
-0.534471
-0.477715
-0.422168
-0.368374
-0.316626
-0.267044
-0.219625
-0.17429
-0.130912
-0.0893371
-0.0494012
-0.0109393
0.0262084
0.062192
0.0971502
0.131209
0.164483
0.197075
0.229074
0.260562
0.291612
0.322287
0.352645
0.382737
0.412612
0.442312
0.471879
0.501351
0.530769
0.56017
0.589594
0.619082
0.648679
0.678432
0.708393
0.738619
0.769174
0.800128
0.83156
0.863558
0.896219
0.929653
0.963979
0.999333
1.03586
1.07372
1.1131
1.15417
1.19714
1.24221
1.28961
1.33955
1.39222
1.44779
1.50639
1.56807
1.63275
1.70021
1.76997
1.84125
1.91287
1.98311
2.04966
2.10946
2.1587
2.19288
2.20771
2.19865
2.15343
2.06509
-0.833863
-0.927021
-0.970373
-0.97298
-0.950199
-0.908442
-0.853241
-0.789768
-0.722056
-0.653012
-0.584637
-0.518226
-0.454543
-0.39397
-0.336628
-0.282463
-0.231318
-0.182971
-0.137175
-0.093673
-0.0522126
-0.0125566
0.0255149
0.0622019
0.0976839
0.132121
0.165654
0.198409
0.230494
0.262006
0.293028
0.323636
0.353895
0.383863
0.413594
0.443134
0.47253
0.501824
0.531056
0.560268
0.589502
0.618801
0.648211
0.677782
0.707568
0.737629
0.768033
0.798853
0.830174
0.862089
0.894705
0.928139
0.962524
0.99801
1.03476
1.07296
1.11282
1.15455
1.19841
1.24466
1.29357
1.34544
1.40057
1.45925
1.52174
1.58826
1.65891
1.73365
1.81224
1.89406
1.97807
2.06259
2.14517
2.22235
2.2895
2.34083
2.37033
2.37115
2.32691
2.22802
-1.01289
-1.11907
-1.15967
-1.14822
-1.10616
-1.04308
-0.966605
-0.88331
-0.797947
-0.713676
-0.632465
-0.555421
-0.483046
-0.415444
-0.352469
-0.293826
-0.239147
-0.188034
-0.140092
-0.0949411
-0.0522322
-0.011647
0.0270989
0.0642577
0.100051
0.134671
0.168289
0.201048
0.233077
0.264485
0.295367
0.325807
0.355876
0.38564
0.415154
0.444471
0.473638
0.5027
0.531699
0.560678
0.589679
0.618747
0.64793
0.677279
0.706848
0.7367
0.766904
0.797538
0.828689
0.860457
0.892952
0.926302
0.96065
0.996158
1.03301
1.07141
1.11159
1.15381
1.19836
1.24555
1.29574
1.34931
1.40667
1.46823
1.53443
1.60568
1.68232
1.76459
1.85253
1.94586
2.04382
2.14495
2.24684
2.34574
2.43625
2.51107
2.56193
2.57861
2.5384
2.42701
-1.2365
-1.35762
-1.38999
-1.35536
-1.28463
-1.19194
-1.08752
-0.979404
-0.872876
-0.771068
-0.675626
-0.587214
-0.505873
-0.431273
-0.362886
-0.300098
-0.242276
-0.188808
-0.139129
-0.0927227
-0.0491334
-0.00795863
0.0311524
0.0685035
0.104357
0.138937
0.172439
0.205026
0.236842
0.268008
0.298627
0.328791
0.358576
0.38805
0.417274
0.446301
0.475179
0.503955
0.532671
0.56137
0.590095
0.618891
0.647804
0.676887
0.706195
0.73579
0.765742
0.796132
0.827048
0.858593
0.890884
0.924053
0.958253
0.993656
1.03046
1.06889
1.1092
1.15169
1.19667
1.24454
1.2957
1.35063
1.40985
1.47392
1.54347
1.61914
1.70156
1.79132
1.88889
1.99446
2.10778
2.22788
2.35268
2.47851
2.59935
2.70637
2.7885
2.83077
2.80066
2.67525
-1.52471
-1.66067
-1.67367
-1.60079
-1.48746
-1.3539
-1.21319
-1.07452
-0.943207
-0.82179
-0.711124
-0.611068
-0.520931
-0.439763
-0.366532
-0.300221
-0.239882
-0.184662
-0.133806
-0.086658
-0.0426509
-0.00129964
0.0378098
0.0750295
0.110658
0.144949
0.178115
0.21034
0.241775
0.272552
0.302781
0.332557
0.361959
0.391059
0.419917
0.448586
0.477116
0.505552
0.533936
0.562309
0.590714
0.619194
0.647795
0.676567
0.705566
0.734853
0.764497
0.79458
0.82519
0.856432
0.888425
0.921305
0.955232
0.990385
1.02697
1.06524
1.10545
1.14794
1.19307
1.24125
1.29299
1.34883
1.40941
1.47545
1.54777
1.62728
1.71494
1.81179
1.91882
2.03691
2.1666
2.30778
2.45925
2.61793
2.77781
2.92881
3.05682
3.14056
3.13254
2.99397
-1.91203
-2.05551
-2.02669
-1.89081
-1.71452
-1.52521
-1.33829
-1.16306
-1.00374
-0.861339
-0.735238
-0.623999
-0.525881
-0.439114
-0.362039
-0.293169
-0.231209
-0.175044
-0.123731
-0.0764733
-0.0326015
0.00844499
0.0471355
0.0838625
0.118954
0.152685
0.185284
0.216944
0.247826
0.278065
0.307774
0.33705
0.365973
0.394613
0.423031
0.451278
0.479402
0.507445
0.535448
0.563451
0.591492
0.619614
0.647859
0.676276
0.704917
0.733843
0.76312
0.792829
0.823056
0.853907
0.8855
0.917974
0.951489
0.98623
1.02241
1.06029
1.10015
1.14234
1.18724
1.23534
1.28716
1.34335
1.40464
1.47191
1.54618
1.62861
1.72057
1.82357
1.93928
2.06946
2.21575
2.37945
2.56091
2.75867
2.96789
3.17836
3.37353
3.5246
3.56248
3.4194
-2.46106
-2.58367
-2.4678
-2.22881
-1.9608
-1.69727
-1.4535
-1.23645
-1.04722
-0.883911
-0.743471
-0.622609
-0.518204
-0.427486
-0.348084
-0.278007
-0.215604
-0.159514
-0.108618
-0.0619954
-0.0188933
0.021309
0.0591221
0.0949667
0.12919
0.162079
0.19387
0.224761
0.254915
0.284466
0.313528
0.342195
0.370545
0.398645
0.426553
0.454316
0.481979
0.50958
0.537158
0.564747
0.592384
0.620106
0.647953
0.675969
0.704204
0.732714
0.761563
0.790828
0.820592
0.850959
0.882043
0.913983
0.946936
0.98109
1.01666
1.05391
1.09312
1.13466
1.17895
1.22647
1.2778
1.33366
1.39486
1.46242
1.53752
1.6216
1.71639
1.82395
1.9467
2.08744
2.24928
2.43546
2.64889
2.89119
3.16078
3.44993
3.74215
4.00223
4.13336
4.01683
-3.28582
-3.30532
-3.0148
-2.61035
-2.2124
-1.85393
-1.54404
-1.28256
-1.06432
-0.88258
-0.730835
-0.603379
-0.495459
-0.403218
-0.32356
-0.254019
-0.19263
-0.137824
-0.0883487
-0.0431975
-0.00155994
0.0372192
0.0736714
0.108229
0.141245
0.173007
0.203752
0.233673
0.262929
0.29165
0.319944
0.347899
0.375588
0.403074
0.430406
0.45763
0.484783
0.511899
0.53901
0.566147
0.593341
0.620624
0.648032
0.675604
0.703385
0.731425
0.759785
0.788534
0.817753
0.847538
0.878001
0.909272
0.941507
0.974887
1.00963
1.04597
1.08423
1.12476
1.16797
1.21438
1.26458
1.31932
1.37949
1.44617
1.52072
1.60478
1.7004
1.81016
1.93722
2.08553
2.25992
2.46614
2.71071
3.0003
3.33987
3.72918
4.15812
4.59162
4.9066
4.90383
-4.5924
-4.2997
-3.67726
-3.01919
-2.44497
-1.97161
-1.59086
-1.28741
-1.04534
-0.850937
-0.693249
-0.563826
-0.456233
-0.365592
-0.288197
-0.221214
-0.162462
-0.110249
-0.0632521
-0.0204291
0.0190459
0.0558311
0.0904544
0.12334
0.154831
0.185205
0.214685
0.243456
0.271664
0.29943
0.326852
0.35401
0.380967
0.407777
0.434484
0.461123
0.487727
0.514323
0.540936
0.567591
0.594312
0.621126
0.648062
0.675152
0.702436
0.729959
0.757773
0.78594
0.814536
0.843649
0.873381
0.903855
0.935219
0.967642
1.00133
1.03653
1.07352
1.11265
1.15433
1.19907
1.24747
1.30027
1.35837
1.42292
1.49533
1.57738
1.67136
1.78023
1.9078
2.05908
2.24067
2.46118
2.73174
3.06624
3.4808
3.99093
4.60451
5.30208
5.96201
6.29008
-6.83995
-5.66616
-4.41684
-3.39673
-2.6055
-2.00931
-1.56554
-1.23271
-0.979101
-0.782422
-0.627076
-0.502101
-0.399744
-0.314453
-0.242191
-0.179979
-0.125582
-0.077304
-0.0338429
0.00581294
0.0424555
0.0767095
0.109071
0.139934
0.169616
0.198369
0.226398
0.253865
0.2809
0.30761
0.334078
0.36037
0.38654
0.41263
0.438673
0.464698
0.490727
0.51678
0.542873
0.569025
0.595251
0.621572
0.64801
0.674589
0.701342
0.728305
0.755523
0.783051
0.810953
0.839308
0.868208
0.897765
0.928112
0.959406
0.991836
1.02563
1.06104
1.09841
1.13812
1.18065
1.22656
1.27656
1.33155
1.39261
1.46116
1.539
1.62847
1.73268
1.85582
2.00361
2.18403
2.40829
2.69237
3.05903
3.54067
4.17992
5.02036
6.094
7.40086
8.64039
-11.2236
-7.46606
-4.95799
-3.48784
-2.51351
-1.84848
-1.39221
-1.06985
-0.833804
-0.655523
-0.517149
-0.407066
-0.317506
-0.243132
-0.180175
-0.125908
-0.0783199
-0.0359009
0.00249905
0.0377659
0.0705886
0.101507
0.130947
0.159245
0.186669
0.213429
0.239695
0.265598
0.291245
0.316716
0.342075
0.367372
0.392644
0.417919
0.443218
0.468556
0.493945
0.519395
0.544912
0.570505
0.596181
0.62195
0.647826
0.673825
0.699969
0.726284
0.752805
0.779576
0.806649
0.834089
0.861974
0.890399
0.919479
0.94935
0.980175
1.01215
1.04551
1.08055
1.11759
1.15706
1.19947
1.24544
1.29575
1.3514
1.41362
1.48405
1.56481
1.65878
1.76989
1.90368
2.06816
2.27529
2.54341
2.90178
3.39904
4.11243
5.14662
6.69
9.28741
13.1542
-18.6332
-9.21958
-4.73318
-2.91585
-1.95749
-1.3787
-1.01347
-0.767789
-0.591526
-0.458947
-0.355661
-0.27287
-0.204868
-0.147785
-0.0988902
-0.0562028
-0.0182518
0.016073
0.047621
0.0770481
0.104865
0.131471
0.15718
0.182237
0.206836
0.231128
0.25523
0.279231
0.3032
0.327187
0.351229
0.375352
0.399571
0.423897
0.448332
0.472878
0.497532
0.52229
0.547146
0.572097
0.597138
0.62227
0.647492
0.67281
0.698234
0.723777
0.749461
0.775315
0.801376
0.82769
0.854317
0.88133
0.908818
0.936887
0.965667
0.995315
1.02602
1.058
1.09153
1.12694
1.16464
1.2051
1.24895
1.29693
1.35
1.4094
1.47674
1.55414
1.64453
1.75201
1.88257
2.0454
2.25539
2.53891
2.9469
3.5764
4.60292
6.51567
11.1184
20.6539
)
;

boundaryField
{
    movingWall
    {
        type            zeroGradient;
    }
    fixedWalls
    {
        type            zeroGradient;
    }
    frontAndBack
    {
        type            empty;
    }
}


// ************************************************************************* //
