/*--------------------------------*- C++ -*----------------------------------*\
  =========                 |
  \\      /  F ield         | OpenFOAM: The Open Source CFD Toolbox
   \\    /   O peration     | Website:  https://openfoam.org
    \\  /    A nd           | Version:  7
     \\/     M anipulation  |
\*---------------------------------------------------------------------------*/
FoamFile
{
    version     2.0;
    format      ascii;
    class       surfaceScalarField;
    location    "0.5";
    object      phi;
}
// * * * * * * * * * * * * * * * * * * * * * * * * * * * * * * * * * * * * * //

dimensions      [0 3 -1 0 0 0 0];

internalField   nonuniform List<scalar> 
6280
(
1.67746e-09
-1.6771e-09
3.0581e-09
-1.38064e-09
2.5131e-09
5.44995e-10
-4.41404e-10
2.95451e-09
-5.79935e-09
5.35795e-09
-1.33444e-08
7.54509e-09
-2.27732e-08
9.42875e-09
-3.37568e-08
1.09837e-08
-4.59715e-08
1.22147e-08
-5.91126e-08
1.31411e-08
-7.29018e-08
1.37893e-08
-8.70904e-08
1.41886e-08
-1.0146e-07
1.43694e-08
-1.15821e-07
1.43616e-08
-1.30015e-07
1.4194e-08
-1.43909e-07
1.38936e-08
-1.57394e-07
1.34853e-08
-1.70386e-07
1.29919e-08
-1.8282e-07
1.24338e-08
-1.94649e-07
1.1829e-08
-2.05842e-07
1.1193e-08
-2.16381e-07
1.05395e-08
-2.26261e-07
9.87961e-09
-2.35484e-07
9.2228e-09
-2.4406e-07
8.57656e-09
-2.52007e-07
7.94676e-09
-2.59345e-07
7.33776e-09
-2.66097e-07
6.75259e-09
-2.72291e-07
6.19307e-09
-2.77951e-07
5.65998e-09
-2.83104e-07
5.1532e-09
-2.87775e-07
4.67178e-09
-2.9199e-07
4.21407e-09
-2.95767e-07
3.77785e-09
-2.99128e-07
3.36035e-09
-3.02086e-07
2.95838e-09
-3.04654e-07
2.56837e-09
-3.06841e-07
2.18643e-09
-3.08649e-07
1.80841e-09
-3.10079e-07
1.42994e-09
-3.11126e-07
1.0465e-09
-3.11779e-07
6.53447e-10
-3.12025e-07
2.46101e-10
-3.11845e-07
-1.80214e-10
-3.11215e-07
-6.30094e-10
-3.10107e-07
-1.10799e-09
-3.08489e-07
-1.61809e-09
-3.06325e-07
-2.16427e-09
-3.03575e-07
-2.74988e-09
-3.00197e-07
-3.37769e-09
-2.96147e-07
-4.04971e-09
-2.9138e-07
-4.76696e-09
-2.85851e-07
-5.52939e-09
-2.79515e-07
-6.33558e-09
-2.72333e-07
-7.1826e-09
-2.64267e-07
-8.06572e-09
-2.55289e-07
-8.97823e-09
-2.45378e-07
-9.91124e-09
-2.34524e-07
-1.08534e-08
-2.22733e-07
-1.1791e-08
-2.10026e-07
-1.27074e-08
-1.96443e-07
-1.35833e-08
-1.82046e-07
-1.43969e-08
-1.66922e-07
-1.51235e-08
-1.51186e-07
-1.5736e-08
-1.34981e-07
-1.62051e-08
-1.18481e-07
-1.64997e-08
-1.01894e-07
-1.65875e-08
-8.54585e-08
-1.64354e-08
-6.94479e-08
-1.60105e-08
-5.41669e-08
-1.5281e-08
-3.99493e-08
-1.42176e-08
-2.71537e-08
-1.27956e-08
-1.61548e-08
-1.09989e-08
-7.32733e-09
-8.82748e-09
-1.0139e-09
-6.31344e-09
2.54156e-09
-3.55546e-09
3.32787e-09
-7.86305e-10
1.87461e-09
1.45327e-09
1.87461e-09
1.40157e-09
-3.07867e-09
5.75823e-10
-5.54886e-10
-4.80171e-09
5.92253e-09
-1.56385e-08
1.37912e-08
-3.20603e-08
2.17797e-08
-5.37281e-08
2.9213e-08
-8.005e-08
3.57506e-08
-1.10316e-07
4.12495e-08
-1.43779e-07
4.56783e-08
-1.79707e-07
4.90682e-08
-2.17404e-07
5.14863e-08
-2.56234e-07
5.30191e-08
-2.95627e-07
5.37625e-08
-3.35082e-07
5.3816e-08
-3.74165e-07
5.32778e-08
-4.12514e-07
5.22423e-08
-4.49827e-07
5.07983e-08
-4.85863e-07
4.90277e-08
-5.20434e-07
4.70046e-08
-5.534e-07
4.47955e-08
-5.84665e-07
4.24583e-08
-6.1417e-07
4.00436e-08
-6.41884e-07
3.7594e-08
-6.67806e-07
3.51451e-08
-6.91956e-07
3.27259e-08
-7.14368e-07
3.03592e-08
-7.35092e-07
2.8062e-08
-7.54186e-07
2.58467e-08
-7.71714e-07
2.37209e-08
-7.87743e-07
2.16883e-08
-8.02338e-07
1.97491e-08
-8.15567e-07
1.79005e-08
-8.2749e-07
1.61369e-08
-8.38163e-07
1.44504e-08
-8.47634e-07
1.28314e-08
-8.55943e-07
1.12681e-08
-8.63123e-07
9.74774e-09
-8.69192e-07
8.25601e-09
-8.74162e-07
6.77776e-09
-8.78029e-07
5.29705e-09
-8.8078e-07
3.79732e-09
-8.82388e-07
2.26166e-09
-8.82815e-07
6.72991e-10
-8.82009e-07
-9.85655e-10
-8.79908e-07
-2.7309e-09
-8.76438e-07
-4.5787e-09
-8.71512e-07
-6.54399e-09
-8.65036e-07
-8.64033e-09
-8.56906e-07
-1.08794e-08
-8.47013e-07
-1.32705e-08
-8.35243e-07
-1.58199e-08
-8.2148e-07
-1.85306e-08
-8.05608e-07
-2.14009e-08
-7.87519e-07
-2.44245e-08
-7.67113e-07
-2.75891e-08
-7.44302e-07
-3.08761e-08
-7.19021e-07
-3.42595e-08
-6.91227e-07
-3.77053e-08
-6.60909e-07
-4.11711e-08
-6.28095e-07
-4.46051e-08
-5.92857e-07
-4.79461e-08
-5.55317e-07
-5.11234e-08
-5.15657e-07
-5.40568e-08
-4.74123e-07
-5.66569e-08
-4.31033e-07
-5.88264e-08
-3.86777e-07
-6.0461e-08
-3.41826e-07
-6.14509e-08
-2.9673e-07
-6.16836e-08
-2.52119e-07
-6.10464e-08
-2.08699e-07
-5.94303e-08
-1.67245e-07
-5.67349e-08
-1.28588e-07
-5.2875e-08
-9.35921e-08
-4.77913e-08
-6.31246e-08
-4.14665e-08
-3.79992e-08
-3.39529e-08
-1.88883e-08
-2.54244e-08
-6.17534e-09
-1.62684e-08
2.75548e-10
-7.23721e-09
1.47166e-09
2.57154e-10
3.34628e-09
-4.93293e-10
-2.58538e-09
-5.85784e-09
4.80966e-09
-1.81452e-08
1.82098e-08
-3.82252e-08
3.38713e-08
-6.61883e-08
4.97428e-08
-1.01594e-07
6.46189e-08
-1.43672e-07
7.78284e-08
-1.9147e-07
8.90471e-08
-2.43958e-07
9.81663e-08
-3.00099e-07
1.0521e-07
-3.58895e-07
1.10282e-07
-4.19414e-07
1.13538e-07
-4.80809e-07
1.15158e-07
-5.42328e-07
1.15335e-07
-6.03315e-07
1.14265e-07
-6.63213e-07
1.1214e-07
-7.21556e-07
1.09141e-07
-7.77967e-07
1.05439e-07
-8.3215e-07
1.01187e-07
-8.83879e-07
9.65253e-08
-9.32998e-07
9.1577e-08
-9.79403e-07
8.6449e-08
-1.02304e-06
8.12328e-08
-1.0639e-06
7.60047e-08
-1.102e-06
7.08275e-08
-1.13739e-06
6.57505e-08
-1.17014e-06
6.08116e-08
-1.20034e-06
5.60378e-08
-1.22806e-06
5.14465e-08
-1.25342e-06
4.70467e-08
-1.27651e-06
4.28397e-08
-1.29743e-06
3.88202e-08
-1.31627e-06
3.49773e-08
-1.33311e-06
3.12948e-08
-1.34804e-06
2.77524e-08
-1.36109e-06
2.43262e-08
-1.37233e-06
2.0989e-08
-1.38179e-06
1.77109e-08
-1.38947e-06
1.44603e-08
-1.39538e-06
1.12035e-08
-1.39949e-06
7.9059e-09
-1.40176e-06
4.53191e-09
-1.40213e-06
1.04582e-09
-1.40053e-06
-2.58782e-09
-1.39686e-06
-6.40364e-09
-1.391e-06
-1.04347e-08
-1.38283e-06
-1.47118e-08
-1.37221e-06
-1.92628e-08
-1.35898e-06
-2.41111e-08
-1.34297e-06
-2.92753e-08
-1.32403e-06
-3.47675e-08
-1.30196e-06
-4.05921e-08
-1.27662e-06
-4.67446e-08
-1.24783e-06
-5.32097e-08
-1.21546e-06
-5.99601e-08
-1.17938e-06
-6.69548e-08
-1.13951e-06
-7.41376e-08
-1.09578e-06
-8.14356e-08
-1.04819e-06
-8.87581e-08
-9.96799e-07
-9.59954e-08
-9.41727e-07
-1.03018e-07
-8.83172e-07
-1.09679e-07
-8.21421e-07
-1.15808e-07
-7.56857e-07
-1.21221e-07
-6.89967e-07
-1.25716e-07
-6.2135e-07
-1.29078e-07
-5.51716e-07
-1.31084e-07
-4.81894e-07
-1.31506e-07
-4.12821e-07
-1.30119e-07
-3.45539e-07
-1.26712e-07
-2.81178e-07
-1.21096e-07
-2.20932e-07
-1.13121e-07
-1.66024e-07
-1.02699e-07
-1.17652e-07
-8.98388e-08
-7.69095e-08
-7.46955e-08
-4.46733e-08
-5.76606e-08
-2.14403e-08
-3.95014e-08
-7.11064e-09
-2.15669e-08
-7.18472e-10
-6.13502e-09
2.62782e-09
-2.90381e-09
3.18434e-10
-1.38219e-08
1.57277e-08
-3.40728e-08
3.84607e-08
-6.41676e-08
6.39662e-08
-1.03977e-07
8.95527e-08
-1.5289e-07
1.13532e-07
-2.09964e-07
1.34902e-07
-2.74055e-07
1.53138e-07
-3.43924e-07
1.68035e-07
-4.1831e-07
1.79596e-07
-4.95986e-07
1.87958e-07
-5.75796e-07
1.93349e-07
-6.56682e-07
1.96043e-07
-7.37692e-07
1.96345e-07
-8.17994e-07
1.94567e-07
-8.96873e-07
1.91019e-07
-9.7373e-07
1.85999e-07
-1.04808e-06
1.79784e-07
-1.11952e-06
1.72633e-07
-1.18777e-06
1.64778e-07
-1.25262e-06
1.56424e-07
-1.31392e-06
1.47752e-07
-1.37161e-06
1.38915e-07
-1.42565e-06
1.30045e-07
-1.47607e-06
1.21246e-07
-1.52292e-06
1.12604e-07
-1.56629e-06
1.04183e-07
-1.60628e-06
9.60314e-08
-1.64302e-06
8.81784e-08
-1.67661e-06
8.06407e-08
-1.70719e-06
7.34214e-08
-1.73488e-06
6.65127e-08
-1.7598e-06
5.98968e-08
-1.78206e-06
5.35473e-08
-1.80173e-06
4.74308e-08
-1.81892e-06
4.15072e-08
-1.83366e-06
3.57313e-08
-1.846e-06
3.00536e-08
-1.85596e-06
2.44208e-08
-1.86353e-06
1.87769e-08
-1.86869e-06
1.3064e-08
-1.87138e-06
7.22292e-09
-1.87153e-06
1.19412e-09
-1.86904e-06
-5.08136e-09
-1.86378e-06
-1.16609e-08
-1.85562e-06
-1.85993e-08
-1.84438e-06
-2.59472e-08
-1.82989e-06
-3.375e-08
-1.81196e-06
-4.20461e-08
-1.79037e-06
-5.08651e-08
-1.76491e-06
-6.02258e-08
-1.73537e-06
-7.0134e-08
-1.70153e-06
-8.05803e-08
-1.6632e-06
-9.15376e-08
-1.62021e-06
-1.02958e-07
-1.57239e-06
-1.14772e-07
-1.51964e-06
-1.26884e-07
-1.46191e-06
-1.3917e-07
-1.39919e-06
-1.51478e-07
-1.33156e-06
-1.63625e-07
-1.25918e-06
-1.75393e-07
-1.18232e-06
-1.86537e-07
-1.10135e-06
-1.96778e-07
-1.01677e-06
-2.05808e-07
-9.29189e-07
-2.13295e-07
-8.3938e-07
-2.18888e-07
-7.48243e-07
-2.22221e-07
-6.56821e-07
-2.22927e-07
-5.66292e-07
-2.20649e-07
-4.77953e-07
-2.15052e-07
-3.93202e-07
-2.05847e-07
-3.13504e-07
-1.92818e-07
-2.40346e-07
-1.75857e-07
-1.75171e-07
-1.55014e-07
-1.19293e-07
-1.30574e-07
-7.3783e-08
-1.03171e-07
-3.93276e-08
-7.39568e-08
-1.60678e-08
-4.48267e-08
-3.436e-09
-1.87668e-08
-8.08182e-10
-5.38334e-09
5.70178e-09
-2.21838e-08
3.25282e-08
-5.08081e-08
6.7085e-08
-9.12193e-08
1.04377e-07
-1.42931e-07
1.41264e-07
-2.05078e-07
1.75679e-07
-2.76513e-07
2.06337e-07
-3.5591e-07
2.32534e-07
-4.41846e-07
2.53971e-07
-5.3288e-07
2.7063e-07
-6.27607e-07
2.82686e-07
-7.24698e-07
2.90439e-07
-8.22926e-07
2.94272e-07
-9.21191e-07
2.94609e-07
-1.01852e-06
2.91896e-07
-1.11408e-06
2.86576e-07
-1.20716e-06
2.79079e-07
-1.29718e-06
2.69811e-07
-1.3837e-06
2.59148e-07
-1.46635e-06
2.47431e-07
-1.54489e-06
2.34962e-07
-1.61915e-06
2.22008e-07
-1.68903e-06
2.08799e-07
-1.75451e-06
1.95526e-07
-1.81561e-06
1.82347e-07
-1.8724e-06
1.69391e-07
-1.92497e-06
1.56753e-07
-1.97344e-06
1.44505e-07
-2.01795e-06
1.32692e-07
-2.05865e-06
1.21341e-07
-2.09569e-06
1.10456e-07
-2.1292e-06
1.00027e-07
-2.15933e-06
9.00275e-08
-2.18621e-06
8.04203e-08
-2.20993e-06
7.11556e-08
-2.2306e-06
6.21749e-08
-2.24828e-06
5.34115e-08
-2.26302e-06
4.47925e-08
-2.27484e-06
3.62395e-08
-2.28373e-06
2.767e-08
-2.28966e-06
1.89987e-08
-2.29258e-06
1.01386e-08
-2.29239e-06
1.00227e-09
-2.28897e-06
-8.49686e-09
-2.28219e-06
-1.84428e-08
-2.27188e-06
-2.89156e-08
-2.25783e-06
-3.99892e-08
-2.23985e-06
-5.17295e-08
-2.21771e-06
-6.41918e-08
-2.19115e-06
-7.74185e-08
-2.15994e-06
-9.14359e-08
-2.12383e-06
-1.06251e-07
-2.08256e-06
-1.21849e-07
-2.03591e-06
-1.38188e-07
-1.98367e-06
-1.55196e-07
-1.92567e-06
-1.7277e-07
-1.86179e-06
-1.90766e-07
-1.79196e-06
-2.09004e-07
-1.71618e-06
-2.27257e-07
-1.63455e-06
-2.45257e-07
-1.54725e-06
-2.62686e-07
-1.45461e-06
-2.79182e-07
-1.35705e-06
-2.94337e-07
-1.25515e-06
-3.07705e-07
-1.14965e-06
-3.18801e-07
-1.04142e-06
-3.27117e-07
-9.31514e-07
-3.32125e-07
-8.21142e-07
-3.33299e-07
-7.11662e-07
-3.30129e-07
-6.04568e-07
-3.22146e-07
-5.01464e-07
-3.08951e-07
-4.04025e-07
-2.90257e-07
-3.13951e-07
-2.65931e-07
-2.32894e-07
-2.36071e-07
-1.6238e-07
-2.01088e-07
-1.03708e-07
-1.61843e-07
-5.78455e-08
-1.1982e-07
-2.53249e-08
-7.73474e-08
-6.18314e-09
-3.79086e-08
-6.99133e-09
-7.75637e-09
1.34581e-08
-3.03826e-08
5.51544e-08
-6.73703e-08
1.04073e-07
-1.1805e-07
1.55057e-07
-1.81489e-07
2.04703e-07
-2.56499e-07
2.50689e-07
-3.41687e-07
2.91525e-07
-4.35521e-07
3.26369e-07
-5.36404e-07
3.54854e-07
-6.42732e-07
3.76958e-07
-7.52948e-07
3.92901e-07
-8.65582e-07
4.03072e-07
-9.79277e-07
4.07967e-07
-1.09281e-06
4.08146e-07
-1.20512e-06
4.04198e-07
-1.31526e-06
3.96715e-07
-1.42245e-06
3.86273e-07
-1.52606e-06
3.7342e-07
-1.62557e-06
3.58663e-07
-1.72061e-06
3.42462e-07
-1.81088e-06
3.25232e-07
-1.8962e-06
3.07334e-07
-1.97648e-06
2.89079e-07
-2.05169e-06
2.70732e-07
-2.12185e-06
2.52508e-07
-2.18704e-06
2.34582e-07
-2.24737e-06
2.17087e-07
-2.30299e-06
2.0012e-07
-2.35404e-06
1.83745e-07
-2.4007e-06
1.67996e-07
-2.44313e-06
1.52883e-07
-2.48149e-06
1.38391e-07
-2.51595e-06
1.24484e-07
-2.54664e-06
1.11112e-07
-2.57369e-06
9.82074e-08
-2.59721e-06
8.56901e-08
-2.61726e-06
7.34697e-08
-2.63392e-06
6.14467e-08
-2.64719e-06
4.95146e-08
-2.65708e-06
3.75612e-08
-2.66356e-06
2.54703e-08
-2.66654e-06
1.31239e-08
-2.66594e-06
4.03043e-10
-2.66163e-06
-1.28095e-08
-2.65344e-06
-2.66277e-08
-2.6412e-06
-4.11597e-08
-2.62468e-06
-5.65054e-08
-2.60366e-06
-7.27538e-08
-2.57787e-06
-8.99791e-08
-2.54705e-06
-1.08238e-07
-2.51092e-06
-1.27566e-07
-2.4692e-06
-1.47971e-07
-2.42162e-06
-1.69432e-07
-2.36792e-06
-1.91891e-07
-2.30786e-06
-2.15252e-07
-2.24126e-06
-2.39371e-07
-2.16797e-06
-2.64056e-07
-2.08791e-06
-2.89061e-07
-2.00109e-06
-3.1408e-07
-1.9076e-06
-3.38748e-07
-1.80765e-06
-3.62636e-07
-1.70157e-06
-3.85257e-07
-1.58985e-06
-4.06059e-07
-1.47312e-06
-4.24441e-07
-1.35217e-06
-4.39751e-07
-1.22798e-06
-4.51306e-07
-1.1017e-06
-4.584e-07
-9.7467e-07
-4.6033e-07
-8.48379e-07
-4.5642e-07
-7.24476e-07
-4.46049e-07
-6.04729e-07
-4.28698e-07
-4.90993e-07
-4.03993e-07
-3.85155e-07
-3.7177e-07
-2.8907e-07
-3.32155e-07
-2.04496e-07
-2.85662e-07
-1.33007e-07
-2.33332e-07
-7.59251e-08
-1.76902e-07
-3.42705e-08
-1.19002e-07
-8.76985e-09
-6.34092e-08
-1.57612e-08
-9.96001e-09
2.34182e-08
-3.81612e-08
8.33556e-08
-8.32532e-08
1.49165e-07
-1.43918e-07
2.15722e-07
-2.18732e-07
2.79517e-07
-3.06132e-07
3.3809e-07
-4.0444e-07
3.89832e-07
-5.11894e-07
4.33823e-07
-6.26709e-07
4.6967e-07
-7.47123e-07
4.97371e-07
-8.71438e-07
5.17217e-07
-9.98065e-07
5.29699e-07
-1.12554e-06
5.35444e-07
-1.25255e-06
5.35159e-07
-1.37795e-06
5.29594e-07
-1.50074e-06
5.195e-07
-1.62008e-06
5.05614e-07
-1.73529e-06
4.88634e-07
-1.84584e-06
4.69211e-07
-1.95131e-06
4.47937e-07
-2.05142e-06
4.25343e-07
-2.14598e-06
4.01893e-07
-2.23489e-06
3.7799e-07
-2.31813e-06
3.53972e-07
-2.39574e-06
3.3012e-07
-2.46782e-06
3.06656e-07
-2.53448e-06
2.83752e-07
-2.5959e-06
2.61534e-07
-2.65224e-06
2.40085e-07
-2.70369e-06
2.19447e-07
-2.75044e-06
1.99633e-07
-2.79267e-06
1.80624e-07
-2.83056e-06
1.62374e-07
-2.86427e-06
1.44817e-07
-2.89392e-06
1.27866e-07
-2.91965e-06
1.11417e-07
-2.94154e-06
9.5354e-08
-2.95964e-06
7.95487e-08
-2.97399e-06
6.38635e-08
-2.98458e-06
4.81537e-08
-2.99138e-06
3.227e-08
-2.99431e-06
1.606e-08
-2.99328e-06
-6.2882e-10
-2.98814e-06
-1.79475e-08
-2.97873e-06
-3.60422e-08
-2.96484e-06
-5.50521e-08
-2.94624e-06
-7.51053e-08
-2.92268e-06
-9.63159e-08
-2.89388e-06
-1.18779e-07
-2.85955e-06
-1.42569e-07
-2.81938e-06
-1.67728e-07
-2.77308e-06
-1.9427e-07
-2.72035e-06
-2.22166e-07
-2.6609e-06
-2.51345e-07
-2.59447e-06
-2.81681e-07
-2.52084e-06
-3.12994e-07
-2.43986e-06
-3.45037e-07
-2.35143e-06
-3.77496e-07
-2.25552e-06
-4.09982e-07
-2.15224e-06
-4.42029e-07
-2.04179e-06
-4.73089e-07
-1.92451e-06
-5.02539e-07
-1.80089e-06
-5.29677e-07
-1.6716e-06
-5.53732e-07
-1.53748e-06
-5.73874e-07
-1.39955e-06
-5.8923e-07
-1.25905e-06
-5.98902e-07
-1.11739e-06
-6.01992e-07
-9.76169e-07
-5.9764e-07
-8.37159e-07
-5.85059e-07
-7.02269e-07
-5.63587e-07
-5.73514e-07
-5.32748e-07
-4.52965e-07
-4.92319e-07
-3.42694e-07
-4.42425e-07
-2.44715e-07
-3.83641e-07
-1.60923e-07
-3.17125e-07
-9.30468e-08
-2.44778e-07
-4.26426e-08
-1.69406e-07
-1.11351e-08
-9.49168e-08
-2.68963e-08
-1.1984e-08
3.54022e-08
-4.54297e-08
1.16801e-07
-9.8239e-08
2.01974e-07
-1.68467e-07
2.8595e-07
-2.54181e-07
3.65231e-07
-3.53416e-07
4.37325e-07
-4.64172e-07
5.00588e-07
-5.84436e-07
5.54087e-07
-7.12218e-07
5.97451e-07
-8.45589e-07
6.30743e-07
-9.8272e-07
6.54348e-07
-1.12191e-06
6.68887e-07
-1.2616e-06
6.75139e-07
-1.40042e-06
6.73977e-07
-1.53715e-06
6.66324e-07
-1.67076e-06
6.53107e-07
-1.80038e-06
6.35233e-07
-1.92531e-06
6.13565e-07
-2.045e-06
5.88904e-07
-2.15905e-06
5.61983e-07
-2.26716e-06
5.33454e-07
-2.36916e-06
5.03893e-07
-2.46496e-06
4.73796e-07
-2.55457e-06
4.43579e-07
-2.63804e-06
4.13588e-07
-2.71548e-06
3.84098e-07
-2.78705e-06
3.5532e-07
-2.85292e-06
3.27407e-07
-2.9133e-06
3.00459e-07
-2.96838e-06
2.74531e-07
-3.01838e-06
2.49635e-07
-3.0635e-06
2.25745e-07
-3.10393e-06
2.02805e-07
-3.13985e-06
1.80731e-07
-3.1714e-06
1.59414e-07
-3.19871e-06
1.38727e-07
-3.22188e-06
1.18525e-07
-3.24098e-06
9.86466e-08
-3.25604e-06
7.8923e-08
-3.26706e-06
5.91747e-08
-3.274e-06
3.92165e-08
-3.2768e-06
1.88602e-08
-3.27535e-06
-2.08323e-09
-3.2695e-06
-2.38003e-08
-3.25907e-06
-4.64719e-08
-3.24385e-06
-7.027e-08
-3.2236e-06
-9.53533e-08
-3.19805e-06
-1.21863e-07
-3.16691e-06
-1.49919e-07
-3.12987e-06
-1.7961e-07
-3.08661e-06
-2.10995e-07
-3.03679e-06
-2.44089e-07
-2.98009e-06
-2.78861e-07
-2.91621e-06
-3.15224e-07
-2.84487e-06
-3.53029e-07
-2.7658e-06
-3.92055e-07
-2.67884e-06
-4.32004e-07
-2.58384e-06
-4.72492e-07
-2.48078e-06
-5.13046e-07
-2.36971e-06
-5.53094e-07
-2.25084e-06
-5.91969e-07
-2.12447e-06
-6.28904e-07
-1.99111e-06
-6.6304e-07
-1.85141e-06
-6.9343e-07
-1.70623e-06
-7.19052e-07
-1.55663e-06
-7.38832e-07
-1.40387e-06
-7.5166e-07
-1.24943e-06
-7.56432e-07
-1.09499e-06
-7.52081e-07
-9.42418e-07
-7.37631e-07
-7.93751e-07
-7.12254e-07
-6.5116e-07
-6.75339e-07
-5.16906e-07
-6.26574e-07
-3.93293e-07
-5.66038e-07
-2.82622e-07
-4.94312e-07
-1.87141e-07
-4.12606e-07
-1.09023e-07
-3.22895e-07
-5.0371e-08
-2.28058e-07
-1.32772e-08
-1.32011e-07
-4.01735e-08
-1.38404e-08
4.92426e-08
-5.21838e-08
1.55145e-07
-1.12274e-07
2.62064e-07
-1.91573e-07
3.65249e-07
-2.87644e-07
4.61302e-07
-3.98101e-07
5.47782e-07
-5.20601e-07
6.23088e-07
-6.52855e-07
6.86342e-07
-7.92653e-07
7.3725e-07
-9.37892e-07
7.75982e-07
-1.08661e-06
8.03063e-07
-1.23699e-06
8.19272e-07
-1.38742e-06
8.25565e-07
-1.53645e-06
8.23004e-07
-1.68283e-06
8.12704e-07
-1.8255e-06
7.95782e-07
-1.9636e-06
7.7333e-07
-2.09642e-06
7.46384e-07
-2.22342e-06
7.15906e-07
-2.34421e-06
6.82772e-07
-2.45852e-06
6.47765e-07
-2.5662e-06
6.11573e-07
-2.66719e-06
5.74787e-07
-2.76152e-06
5.37905e-07
-2.84927e-06
5.01337e-07
-2.93058e-06
4.65409e-07
-3.00563e-06
4.30371e-07
-3.07463e-06
3.96404e-07
-3.13779e-06
3.63624e-07
-3.19535e-06
3.32092e-07
-3.24754e-06
3.01821e-07
-3.29457e-06
2.72777e-07
-3.33665e-06
2.4489e-07
-3.37398e-06
2.18058e-07
-3.40672e-06
1.92149e-07
-3.435e-06
1.67006e-07
-3.45893e-06
1.42456e-07
-3.47859e-06
1.18306e-07
-3.49401e-06
9.43498e-08
-3.50521e-06
7.03731e-08
-3.51215e-06
4.61533e-08
-3.51475e-06
2.14641e-08
-3.51291e-06
-3.92118e-09
-3.50649e-06
-3.02267e-08
-3.49529e-06
-5.76699e-08
-3.4791e-06
-8.64575e-08
-3.45767e-06
-1.16781e-07
-3.43073e-06
-1.48811e-07
-3.39795e-06
-1.82691e-07
-3.35903e-06
-2.18535e-07
-3.31361e-06
-2.56412e-07
-3.26136e-06
-2.96346e-07
-3.20191e-06
-3.38305e-07
-3.13494e-06
-3.82191e-07
-3.06014e-06
-4.27832e-07
-2.97722e-06
-4.74972e-07
-2.88597e-06
-5.23262e-07
-2.78621e-06
-5.72251e-07
-2.67787e-06
-6.21382e-07
-2.56098e-06
-6.6998e-07
-2.4357e-06
-7.17255e-07
-2.3023e-06
-7.62297e-07
-2.16126e-06
-8.04081e-07
-2.01321e-06
-8.41479e-07
-1.859e-06
-8.73269e-07
-1.69967e-06
-8.9816e-07
-1.53651e-06
-9.14819e-07
-1.37103e-06
-9.2191e-07
-1.20497e-06
-9.1814e-07
-1.04029e-06
-9.02315e-07
-8.79135e-07
-8.73408e-07
-7.23837e-07
-8.30637e-07
-5.76856e-07
-7.73555e-07
-4.40749e-07
-7.02145e-07
-3.18126e-07
-6.16935e-07
-2.11617e-07
-5.19115e-07
-1.23854e-07
-4.10659e-07
-5.74825e-08
-2.9443e-07
-1.52198e-08
-1.74273e-07
-5.53932e-08
-1.55499e-08
6.47925e-08
-5.84615e-08
1.98056e-07
-1.25394e-07
3.28996e-07
-2.13255e-07
4.5311e-07
-3.1911e-07
5.67157e-07
-4.40146e-07
6.68818e-07
-5.73661e-07
7.56603e-07
-7.17072e-07
8.29752e-07
-8.67934e-07
8.88112e-07
-1.02396e-06
9.3201e-07
-1.18305e-06
9.62152e-07
-1.34329e-06
9.79516e-07
-1.503e-06
9.85266e-07
-1.66067e-06
9.8068e-07
-1.81505e-06
9.67085e-07
-1.96508e-06
9.45809e-07
-2.10989e-06
9.18139e-07
-2.2488e-06
8.85296e-07
-2.3813e-06
8.48409e-07
-2.50704e-06
8.08505e-07
-2.62577e-06
7.66499e-07
-2.73739e-06
7.23193e-07
-2.84188e-06
6.79273e-07
-2.93929e-06
6.35319e-07
-3.02976e-06
5.91803e-07
-3.11345e-06
5.49102e-07
-3.19058e-06
5.075e-07
-3.26138e-06
4.67203e-07
-3.3261e-06
4.28343e-07
-3.38499e-06
3.90984e-07
-3.4383e-06
3.55136e-07
-3.48628e-06
3.20756e-07
-3.52915e-06
2.87758e-07
-3.56711e-06
2.56017e-07
-3.60034e-06
2.25378e-07
-3.62899e-06
1.95654e-07
-3.65317e-06
1.6664e-07
-3.67297e-06
1.38109e-07
-3.68844e-06
1.0982e-07
-3.69959e-06
8.15186e-08
-3.70638e-06
5.29452e-08
-3.70875e-06
2.3834e-08
-3.70659e-06
-6.08091e-09
-3.69976e-06
-3.70626e-08
-3.68806e-06
-6.93666e-08
-3.67128e-06
-1.03236e-07
-3.64916e-06
-1.38897e-07
-3.62142e-06
-1.76552e-07
-3.58774e-06
-2.16373e-07
-3.54778e-06
-2.58496e-07
-3.50118e-06
-3.03009e-07
-3.44758e-06
-3.49947e-07
-3.3866e-06
-3.99281e-07
-3.31789e-06
-4.50906e-07
-3.24109e-06
-5.04632e-07
-3.15589e-06
-5.60171e-07
-3.06202e-06
-6.17129e-07
-2.95928e-06
-6.74995e-07
-2.84753e-06
-7.33128e-07
-2.72676e-06
-7.90756e-07
-2.59705e-06
-8.46965e-07
-2.45864e-06
-9.00703e-07
-2.31195e-06
-9.50779e-07
-2.15755e-06
-9.95876e-07
-1.99625e-06
-1.03456e-06
-1.82909e-06
-1.06532e-06
-1.65733e-06
-1.08658e-06
-1.4825e-06
-1.09674e-06
-1.30637e-06
-1.09427e-06
-1.13097e-06
-1.07771e-06
-9.58583e-07
-1.0458e-06
-7.91679e-07
-9.9754e-07
-6.32935e-07
-9.32299e-07
-4.85175e-07
-8.49905e-07
-3.5134e-07
-7.5077e-07
-2.34461e-07
-6.35994e-07
-1.37638e-07
-5.07482e-07
-6.405e-08
-3.68018e-07
-1.69951e-08
-2.21328e-07
-7.23883e-08
-1.71359e-08
8.19285e-08
-6.43219e-08
2.45242e-07
-1.37687e-07
4.02362e-07
-2.33615e-07
5.49038e-07
-3.48685e-07
6.82227e-07
-4.7965e-07
7.99783e-07
-6.23439e-07
9.00391e-07
-7.7716e-07
9.83474e-07
-9.38122e-07
1.04907e-06
-1.10385e-06
1.09774e-06
-1.27209e-06
1.1304e-06
-1.44086e-06
1.14828e-06
-1.60838e-06
1.15279e-06
-1.77314e-06
1.14545e-06
-1.93388e-06
1.12783e-06
-2.08955e-06
1.10148e-06
-2.23931e-06
1.0679e-06
-2.38253e-06
1.02851e-06
-2.51873e-06
9.84614e-07
-2.64762e-06
9.3739e-07
-2.769e-06
8.87887e-07
-2.88283e-06
8.37022e-07
-2.98914e-06
7.85575e-07
-3.08802e-06
7.34203e-07
-3.17965e-06
6.83438e-07
-3.26425e-06
6.33702e-07
-3.34207e-06
5.85314e-07
-3.41336e-06
5.38499e-07
-3.47842e-06
4.93398e-07
-3.53751e-06
4.50079e-07
-3.59092e-06
4.08543e-07
-3.6389e-06
3.68736e-07
-3.68169e-06
3.30552e-07
-3.71952e-06
2.93844e-07
-3.75257e-06
2.58429e-07
-3.78101e-06
2.2409e-07
-3.80495e-06
1.90587e-07
-3.8245e-06
1.57659e-07
-3.83971e-06
1.25027e-07
-3.85059e-06
9.23989e-08
-3.85712e-06
5.94749e-08
-3.85923e-06
2.59494e-08
-3.85683e-06
-8.48389e-09
-3.84977e-06
-4.4128e-08
-3.83786e-06
-8.12776e-08
-3.82088e-06
-1.20214e-07
-3.79857e-06
-1.612e-07
-3.77066e-06
-2.04471e-07
-3.7368e-06
-2.50232e-07
-3.69665e-06
-2.98642e-07
-3.64984e-06
-3.49815e-07
-3.59599e-06
-4.03799e-07
-3.5347e-06
-4.60573e-07
-3.46557e-06
-5.20032e-07
-3.38823e-06
-5.81973e-07
-3.30232e-06
-6.46085e-07
-3.20751e-06
-7.11935e-07
-3.10355e-06
-7.78955e-07
-2.99025e-06
-8.46434e-07
-2.8675e-06
-9.13502e-07
-2.73534e-06
-9.7913e-07
-2.59392e-06
-1.04212e-06
-2.44357e-06
-1.10113e-06
-2.28481e-06
-1.15463e-06
-2.11838e-06
-1.20099e-06
-1.94525e-06
-1.23845e-06
-1.76667e-06
-1.26516e-06
-1.58415e-06
-1.27927e-06
-1.39949e-06
-1.27893e-06
-1.21477e-06
-1.26242e-06
-1.03239e-06
-1.22819e-06
-8.54968e-07
-1.17496e-06
-6.85412e-07
-1.10186e-06
-5.26824e-07
-1.00849e-06
-3.82496e-07
-8.95098e-07
-2.55872e-07
-7.62618e-07
-1.50528e-07
-6.12825e-07
-7.01677e-08
-4.48379e-07
-1.86381e-08
-2.72858e-07
-9.10264e-08
-1.86227e-08
1.00551e-07
-6.98339e-08
2.96453e-07
-1.49269e-07
4.81797e-07
-2.52807e-07
6.52577e-07
-3.76546e-07
8.05966e-07
-5.16802e-07
9.40039e-07
-6.70122e-07
1.05371e-06
-8.33295e-07
1.14665e-06
-1.00337e-06
1.21915e-06
-1.17769e-06
1.27205e-06
-1.35385e-06
1.30656e-06
-1.52976e-06
1.32419e-06
-1.70361e-06
1.32664e-06
-1.87388e-06
1.31572e-06
-2.03931e-06
1.29325e-06
-2.19889e-06
1.26105e-06
-2.35182e-06
1.22084e-06
-2.49754e-06
1.17423e-06
-2.63564e-06
1.12271e-06
-2.76588e-06
1.06763e-06
-2.88815e-06
1.01016e-06
-3.00247e-06
9.51333e-07
-3.10891e-06
8.92019e-07
-3.20765e-06
8.32946e-07
-3.29892e-06
7.74703e-07
-3.38297e-06
7.17751e-07
-3.46009e-06
6.62437e-07
-3.53059e-06
6.09e-07
-3.59478e-06
5.57589e-07
-3.65297e-06
5.08266e-07
-3.70545e-06
4.61024e-07
-3.7525e-06
4.1579e-07
-3.79439e-06
3.72439e-07
-3.83134e-06
3.30797e-07
-3.86357e-06
2.9065e-07
-3.89123e-06
2.51752e-07
-3.91447e-06
2.13827e-07
-3.93339e-06
1.76576e-07
-3.94804e-06
1.39684e-07
-3.95846e-06
1.02819e-07
-3.96463e-06
6.56404e-08
-3.96648e-06
2.7803e-08
-3.96392e-06
-1.10405e-08
-3.95682e-06
-5.12338e-08
-3.94498e-06
-9.3112e-08
-3.9282e-06
-1.36996e-07
-3.90622e-06
-1.83186e-07
-3.87873e-06
-2.31954e-07
-3.84543e-06
-2.83538e-07
-3.80594e-06
-3.38129e-07
-3.75989e-06
-3.95865e-07
-3.70687e-06
-4.56817e-07
-3.64647e-06
-5.20977e-07
-3.57826e-06
-5.88244e-07
-3.50182e-06
-6.58414e-07
-3.41674e-06
-7.3116e-07
-3.32266e-06
-8.06018e-07
-3.21924e-06
-8.82376e-07
-3.10622e-06
-9.59456e-07
-2.98341e-06
-1.0363e-06
-2.85076e-06
-1.11178e-06
-2.70833e-06
-1.18456e-06
-2.55634e-06
-1.25312e-06
-2.39522e-06
-1.31575e-06
-2.22562e-06
-1.3706e-06
-2.04843e-06
-1.41564e-06
-1.86483e-06
-1.44876e-06
-1.67631e-06
-1.46779e-06
-1.48467e-06
-1.47058e-06
-1.29204e-06
-1.45505e-06
-1.10091e-06
-1.41932e-06
-9.1407e-07
-1.36179e-06
-7.34645e-07
-1.28128e-06
-5.66034e-07
-1.1771e-06
-4.11893e-07
-1.04924e-06
-2.76095e-07
-8.98415e-07
-1.62702e-07
-7.26219e-07
-7.59375e-08
-5.35143e-07
-2.01831e-08
-3.28612e-07
-1.1121e-07
-2.00346e-08
1.20586e-07
-7.50724e-08
3.51491e-07
-1.60273e-07
5.66997e-07
-2.71017e-07
7.63321e-07
-4.0292e-07
9.37868e-07
-5.51851e-07
1.08897e-06
-7.13966e-07
1.21582e-06
-8.85723e-07
1.3184e-06
-1.06391e-06
1.39734e-06
-1.24566e-06
1.4538e-06
-1.42844e-06
1.48934e-06
-1.61008e-06
1.50583e-06
-1.78874e-06
1.5053e-06
-1.96288e-06
1.48986e-06
-2.13128e-06
1.46166e-06
-2.29298e-06
1.42275e-06
-2.44728e-06
1.37513e-06
-2.59366e-06
1.32061e-06
-2.73182e-06
1.26087e-06
-2.8616e-06
1.19741e-06
-2.98298e-06
1.13154e-06
-3.09604e-06
1.06439e-06
-3.20095e-06
9.96932e-07
-3.29795e-06
9.29945e-07
-3.38732e-06
8.64071e-07
-3.46937e-06
7.99805e-07
-3.54445e-06
7.37512e-07
-3.61289e-06
6.77442e-07
-3.67504e-06
6.1974e-07
-3.73124e-06
5.64464e-07
-3.7818e-06
5.11588e-07
-3.82703e-06
4.61022e-07
-3.86721e-06
4.12613e-07
-3.90257e-06
3.6616e-07
-3.93334e-06
3.21418e-07
-3.95969e-06
2.78105e-07
-3.98178e-06
2.35912e-07
-3.9997e-06
1.94502e-07
-4.01354e-06
1.53521e-07
-4.02332e-06
1.12597e-07
-4.02903e-06
7.13513e-08
-4.03062e-06
2.93965e-08
-4.02801e-06
-1.36553e-08
-4.02105e-06
-5.81887e-08
-4.00958e-06
-1.0458e-07
-3.99339e-06
-1.53189e-07
-3.97222e-06
-2.04358e-07
-3.94578e-06
-2.58396e-07
-3.91374e-06
-3.15577e-07
-3.87574e-06
-3.76127e-07
-3.83139e-06
-4.40215e-07
-3.78027e-06
-5.07937e-07
-3.72194e-06
-5.79307e-07
-3.65594e-06
-6.5424e-07
-3.58182e-06
-7.32535e-07
-3.49912e-06
-8.13859e-07
-3.40741e-06
-8.97733e-07
-3.30628e-06
-9.83508e-07
-3.19538e-06
-1.07035e-06
-3.07444e-06
-1.15724e-06
-2.94328e-06
-1.24294e-06
-2.80186e-06
-1.32598e-06
-2.65027e-06
-1.4047e-06
-2.48883e-06
-1.47719e-06
-2.31806e-06
-1.54137e-06
-2.13875e-06
-1.59494e-06
-1.952e-06
-1.63551e-06
-1.75923e-06
-1.66056e-06
-1.56221e-06
-1.66759e-06
-1.36313e-06
-1.65413e-06
-1.16454e-06
-1.61791e-06
-9.6939e-07
-1.55694e-06
-7.81038e-07
-1.46963e-06
-6.03185e-07
-1.35496e-06
-4.39865e-07
-1.21256e-06
-2.95398e-07
-1.04288e-06
-1.74346e-07
-8.47271e-07
-8.14633e-08
-6.28026e-07
-2.16636e-08
-3.88412e-07
-1.32873e-07
-2.13962e-08
1.41982e-07
-8.01161e-08
4.10211e-07
-1.70843e-07
6.57724e-07
-2.88453e-07
8.80931e-07
-4.28064e-07
1.07748e-06
-5.85088e-07
1.24599e-06
-7.5527e-07
1.38601e-06
-9.3473e-07
1.49786e-06
-1.11999e-06
1.5826e-06
-1.30797e-06
1.64178e-06
-1.49603e-06
1.6774e-06
-1.68191e-06
1.69171e-06
-1.86375e-06
1.68714e-06
-2.04005e-06
1.66616e-06
-2.20963e-06
1.63124e-06
-2.37162e-06
1.58474e-06
-2.52539e-06
1.5289e-06
-2.67055e-06
1.46577e-06
-2.80689e-06
1.39721e-06
-2.93437e-06
1.32488e-06
-3.05305e-06
1.25022e-06
-3.16311e-06
1.17446e-06
-3.26482e-06
1.09864e-06
-3.35848e-06
1.0236e-06
-3.44444e-06
9.5003e-07
-3.52307e-06
8.78439e-07
-3.59476e-06
8.09207e-07
-3.65991e-06
7.42584e-07
-3.71887e-06
6.78708e-07
-3.77203e-06
6.17621e-07
-3.81972e-06
5.59279e-07
-3.86226e-06
5.03564e-07
-3.89995e-06
4.50298e-07
-3.93304e-06
3.99247e-07
-3.96175e-06
3.50133e-07
-3.98629e-06
3.02639e-07
-4.00679e-06
2.56419e-07
-4.02339e-06
2.11099e-07
-4.03615e-06
1.66284e-07
-4.04512e-06
1.21567e-07
-4.0503e-06
7.65272e-08
-4.05164e-06
3.07369e-08
-4.04906e-06
-1.62321e-08
-4.04245e-06
-6.48051e-08
-4.03163e-06
-1.15399e-07
-4.0164e-06
-1.68417e-07
-3.99652e-06
-2.24238e-07
-3.9717e-06
-2.83214e-07
-3.94162e-06
-3.45659e-07
-3.90591e-06
-4.11835e-07
-3.86418e-06
-4.81948e-07
-3.81599e-06
-5.56127e-07
-3.76088e-06
-6.34414e-07
-3.69837e-06
-7.16747e-07
-3.62797e-06
-8.02941e-07
-3.54916e-06
-8.92671e-07
-3.46144e-06
-9.8545e-07
-3.36433e-06
-1.08061e-06
-3.2574e-06
-1.17729e-06
-3.14025e-06
-1.27439e-06
-3.01259e-06
-1.3706e-06
-2.87423e-06
-1.46434e-06
-2.72515e-06
-1.55379e-06
-2.56548e-06
-1.63686e-06
-2.39563e-06
-1.71122e-06
-2.21623e-06
-1.77434e-06
-2.02827e-06
-1.82347e-06
-1.83307e-06
-1.85576e-06
-1.63238e-06
-1.86828e-06
-1.42836e-06
-1.85815e-06
-1.22364e-06
-1.82263e-06
-1.02134e-06
-1.75925e-06
-8.25006e-07
-1.66596e-06
-6.38672e-07
-1.54129e-06
-4.66761e-07
-1.38447e-06
-3.1406e-07
-1.19558e-06
-1.85654e-07
-9.75678e-07
-8.68489e-08
-7.2683e-07
-2.31118e-08
-4.52149e-07
-1.55985e-07
-2.27328e-08
1.64715e-07
-8.50485e-08
4.72527e-07
-1.81135e-07
7.5381e-07
-3.05342e-07
1.00514e-06
-4.52265e-07
1.2244e-06
-6.16831e-07
1.41056e-06
-7.94362e-07
1.56354e-06
-9.80625e-07
1.68413e-06
-1.17187e-06
1.77384e-06
-1.36482e-06
1.83474e-06
-1.55672e-06
1.8693e-06
-1.74526e-06
1.88025e-06
-1.92857e-06
1.87045e-06
-2.10522e-06
1.8428e-06
-2.27409e-06
1.80011e-06
-2.43443e-06
1.74508e-06
-2.58573e-06
1.6802e-06
-2.72771e-06
1.60776e-06
-2.86031e-06
1.52981e-06
-2.98359e-06
1.44816e-06
-3.09775e-06
1.36438e-06
-3.20306e-06
1.27978e-06
-3.29988e-06
1.19546e-06
-3.38861e-06
1.11233e-06
-3.46966e-06
1.03108e-06
-3.54347e-06
9.52252e-07
-3.61048e-06
8.76217e-07
-3.67112e-06
8.03219e-07
-3.72579e-06
7.33382e-07
-3.7749e-06
6.66724e-07
-3.81879e-06
6.03176e-07
-3.85782e-06
5.42592e-07
-3.89228e-06
4.84759e-07
-3.92244e-06
4.29411e-07
-3.94854e-06
3.76233e-07
-3.97078e-06
3.24875e-07
-3.98931e-06
2.74951e-07
-4.00426e-06
2.2605e-07
-4.01572e-06
1.77741e-07
-4.02373e-06
1.29575e-07
-4.0283e-06
8.1095e-08
-4.02939e-06
3.18333e-08
-4.02695e-06
-1.86781e-08
-4.02085e-06
-7.09046e-08
-4.01094e-06
-1.25304e-07
-3.99704e-06
-1.82319e-07
-3.9789e-06
-2.42373e-07
-3.95626e-06
-3.05858e-07
-3.92879e-06