/*--------------------------------*- C++ -*----------------------------------*\
  =========                 |
  \\      /  F ield         | OpenFOAM: The Open Source CFD Toolbox
   \\    /   O peration     | Website:  https://openfoam.org
    \\  /    A nd           | Version:  7
     \\/     M anipulation  |
\*---------------------------------------------------------------------------*/
FoamFile
{
    version     2.0;
    format      ascii;
    class       volVectorField;
    location    "0.5";
    object      U;
}
// * * * * * * * * * * * * * * * * * * * * * * * * * * * * * * * * * * * * * //

dimensions      [0 1 -1 0 0 0 0];

internalField   nonuniform List<vector> 
3200
(
(7.74553e-05 -7.72913e-05 0)
(0.000215063 -8.38991e-05 0)
(0.0002582 -2.86667e-05 0)
(0.000123796 4.25894e-05 0)
(-0.000209452 0.00011223 0)
(-0.000729538 0.000173806 0)
(-0.00141366 0.000225318 0)
(-0.00223571 0.000266691 0)
(-0.00316914 0.000298597 0)
(-0.00418857 0.000321966 0)
(-0.00527057 0.000337789 0)
(-0.00639397 0.000347045 0)
(-0.00754007 0.000350665 0)
(-0.00869257 0.000349522 0)
(-0.00983756 0.000344418 0)
(-0.0109634 0.000336084 0)
(-0.0120604 0.000325181 0)
(-0.0131209 0.000312297 0)
(-0.014139 0.000297949 0)
(-0.0151103 0.000282588 0)
(-0.0160317 0.0002666 0)
(-0.0169013 0.000250314 0)
(-0.0177181 0.000234001 0)
(-0.0184821 0.000217882 0)
(-0.0191939 0.00020213 0)
(-0.0198545 0.000186881 0)
(-0.0204655 0.000172231 0)
(-0.0210287 0.000158242 0)
(-0.021546 0.000144952 0)
(-0.0220197 0.00013237 0)
(-0.0224517 0.000120484 0)
(-0.0228443 0.000109265 0)
(-0.0231993 9.86653e-05 0)
(-0.0235186 8.86251e-05 0)
(-0.0238038 7.90719e-05 0)
(-0.0240563 6.99229e-05 0)
(-0.0242772 6.1087e-05 0)
(-0.0244673 5.24651e-05 0)
(-0.024627 4.39522e-05 0)
(-0.0247566 3.54378e-05 0)
(-0.0248558 2.68072e-05 0)
(-0.024924 1.7943e-05 0)
(-0.0249603 8.72593e-06 0)
(-0.0249634 -9.63716e-07 0)
(-0.0249314 -1.12445e-05 0)
(-0.0248625 -2.22323e-05 0)
(-0.0247541 -3.4038e-05 0)
(-0.0246035 -4.67649e-05 0)
(-0.0244077 -6.0506e-05 0)
(-0.0241634 -7.534e-05 0)
(-0.0238671 -9.13277e-05 0)
(-0.0235152 -0.000108508 0)
(-0.0231042 -0.000126892 0)
(-0.0226303 -0.000146459 0)
(-0.0220903 -0.000167151 0)
(-0.0214809 -0.000188864 0)
(-0.0207996 -0.000211445 0)
(-0.0200442 -0.000234684 0)
(-0.0192136 -0.000258309 0)
(-0.0183076 -0.000281984 0)
(-0.017327 -0.000305298 0)
(-0.0162743 -0.00032777 0)
(-0.0151537 -0.000348844 0)
(-0.0139709 -0.000367887 0)
(-0.0127341 -0.000384197 0)
(-0.0114535 -0.000397003 0)
(-0.0101417 -0.000405475 0)
(-0.00881407 -0.000408729 0)
(-0.00748843 -0.00040584 0)
(-0.00618531 -0.000395847 0)
(-0.00492787 -0.000377768 0)
(-0.00374174 -0.000350616 0)
(-0.00265479 -0.000313424 0)
(-0.00169663 -0.000265319 0)
(-0.000897684 -0.000205703 0)
(-0.000287573 -0.000134771 0)
(0.000108077 -5.47594e-05 0)
(0.000275645 2.72416e-05 0)
(0.000238148 9.17711e-05 0)
(8.72331e-05 8.70844e-05 0)
(8.50659e-05 -0.000215587 0)
(0.000151604 -0.000149478 0)
(-7.33883e-05 0.000138135 0)
(-0.000711929 0.000497646 0)
(-0.00180412 0.000860725 0)
(-0.00333657 0.00119479 0)
(-0.00526852 0.00148511 0)
(-0.00754587 0.00172656 0)
(-0.0101092 0.00191897 0)
(-0.0128985 0.00206471 0)
(-0.0158563 0.00216744 0)
(-0.018929 0.00223148 0)
(-0.0220684 0.00226136 0)
(-0.0252313 0.00226166 0)
(-0.0283806 0.00223679 0)
(-0.0314844 0.00219093 0)
(-0.0345162 0.00212796 0)
(-0.0374543 0.00205143 0)
(-0.0402818 0.00196453 0)
(-0.0429856 0.00187008 0)
(-0.0455565 0.00177056 0)
(-0.0479881 0.00166809 0)
(-0.0502772 0.00156447 0)
(-0.0524225 0.00146117 0)
(-0.0544249 0.0013594 0)
(-0.0562866 0.00126009 0)
(-0.058011 0.00116394 0)
(-0.0596026 0.00107145 0)
(-0.0610662 0.000982909 0)
(-0.0624071 0.000898459 0)
(-0.0636308 0.000818085 0)
(-0.0647426 0.00074165 0)
(-0.0657475 0.000668903 0)
(-0.0666503 0.000599499 0)
(-0.0674552 0.00053301 0)
(-0.0681657 0.000468937 0)
(-0.0687848 0.000406725 0)
(-0.0693144 0.000345763 0)
(-0.0697559 0.000285403 0)
(-0.0701095 0.00022496 0)
(-0.0703747 0.000163728 0)
(-0.0705497 0.000100979 0)
(-0.0706319 3.59829e-05 0)
(-0.0706179 -3.19923e-05 0)
(-0.070503 -0.000103664 0)
(-0.0702817 -0.000179723 0)
(-0.0699476 -0.000260822 0)
(-0.0694934 -0.000347557 0)
(-0.0689113 -0.000440447 0)
(-0.0681925 -0.000539913 0)
(-0.0673282 -0.000646255 0)
(-0.0663091 -0.000759621 0)
(-0.0651259 -0.000879985 0)
(-0.0637695 -0.00100711 0)
(-0.0622314 -0.0011405 0)
(-0.0605042 -0.00127942 0)
(-0.0585816 -0.00142277 0)
(-0.0564591 -0.00156916 0)
(-0.0541344 -0.00171679 0)
(-0.0516081 -0.00186348 0)
(-0.0488841 -0.00200663 0)
(-0.0459699 -0.00214321 0)
(-0.0428777 -0.00226979 0)
(-0.0396245 -0.00238252 0)
(-0.0362327 -0.00247716 0)
(-0.0327304 -0.00254917 0)
(-0.0291522 -0.00259373 0)
(-0.0255389 -0.00260585 0)
(-0.0219377 -0.00258043 0)
(-0.0184022 -0.00251249 0)
(-0.0149918 -0.00239725 0)
(-0.0117711 -0.00223043 0)
(-0.00880848 -0.00200866 0)
(-0.00617397 -0.00173009 0)
(-0.00393614 -0.00139572 0)
(-0.00215664 -0.00101188 0)
(-0.000881517 -0.000595277 0)
(-0.000125898 -0.000182101 0)
(0.000154113 0.00015187 0)
(9.27659e-05 0.000238429 0)
(3.14658e-05 -0.00026198 0)
(-0.000132487 7.37366e-05 0)
(-0.000812768 0.000816671 0)
(-0.00210036 0.00171013 0)
(-0.00402604 0.00261963 0)
(-0.00657287 0.00347024 0)
(-0.00968925 0.00422233 0)
(-0.0133037 0.00485803 0)
(-0.0173354 0.0053723 0)
(-0.0217006 0.00576766 0)
(-0.026317 0.00605103 0)
(-0.0311071 0.00623186 0)
(-0.0359993 0.00632088 0)
(-0.0409297 0.00632937 0)
(-0.0458419 0.00626856 0)
(-0.0506874 0.00614934 0)
(-0.0554253 0.00598201 0)
(-0.0600221 0.00577606 0)
(-0.064451 0.00554016 0)
(-0.0686912 0.00528206 0)
(-0.0727278 0.00500859 0)
(-0.0765503 0.00472564 0)
(-0.0801527 0.00443826 0)
(-0.0835325 0.00415065 0)
(-0.0866903 0.00386623 0)
(-0.0896289 0.0035877 0)
(-0.092353 0.00331711 0)
(-0.0948689 0.00305591 0)
(-0.0971837 0.00280503 0)
(-0.0993051 0.00256493 0)
(-0.101241 0.00233567 0)
(-0.103 0.00211692 0)
(-0.104588 0.00190804 0)
(-0.106014 0.00170814 0)
(-0.107284 0.00151608 0)
(-0.108402 0.00133051 0)
(-0.109373 0.00114991 0)
(-0.1102 0.000972645 0)
(-0.110886 0.000796927 0)
(-0.111429 0.000620897 0)
(-0.111831 0.000442622 0)
(-0.112087 0.000260128 0)
(-0.112194 7.14224e-05 0)
(-0.112146 -0.000125474 0)
(-0.111937 -0.000332495 0)
(-0.111559 -0.000551496 0)
(-0.111 -0.00078421 0)
(-0.110252 -0.0010322 0)
(-0.109301 -0.00129681 0)
(-0.108135 -0.00157911 0)
(-0.10674 -0.0018798 0)
(-0.105103 -0.00219919 0)
(-0.10321 -0.00253705 0)
(-0.101048 -0.00289261 0)
(-0.0986039 -0.00326439 0)
(-0.095868 -0.00365017 0)
(-0.0928312 -0.00404687 0)
(-0.0894874 -0.00445049 0)
(-0.0858342 -0.00485602 0)
(-0.0818734 -0.00525739 0)
(-0.0776117 -0.00564744 0)
(-0.0730619 -0.0060179 0)
(-0.068243 -0.00635939 0)
(-0.0631818 -0.00666153 0)
(-0.057913 -0.00691299 0)
(-0.0524799 -0.00710167 0)
(-0.0469348 -0.0072149 0)
(-0.0413392 -0.00723973 0)
(-0.035764 -0.00716325 0)
(-0.0302885 -0.00697312 0)
(-0.025 -0.00665809 0)
(-0.019992 -0.00620894 0)
(-0.0153621 -0.00561967 0)
(-0.0112084 -0.00488946 0)
(-0.00762433 -0.0040259 0)
(-0.0046915 -0.00305058 0)
(-0.00246824 -0.0020087 0)
(-0.000973372 -0.000983923 0)
(-0.000173319 -0.000125676 0)
(3.03525e-05 0.000279279 0)
(-3.87388e-05 -0.000132712 0)
(-0.000493854 0.000711973 0)
(-0.00171968 0.00210614 0)
(-0.00373511 0.00371184 0)
(-0.00653948 0.00533545 0)
(-0.0101038 0.00685951 0)
(-0.0143642 0.00821644 0)
(-0.0192345 0.00937224 0)
(-0.0246177 0.0103144 0)
(-0.0304125 0.0110441 0)
(-0.0365186 0.0115711 0)
(-0.04284 0.0119105 0)
(-0.0492877 0.0120804 0)
(-0.0557811 0.0121004 0)
(-0.0622489 0.0119905 0)
(-0.0686291 0.0117703 0)
(-0.0748693 0.0114587 0)
(-0.0809261 0.0110731 0)
(-0.0867645 0.0106298 0)
(-0.0923575 0.0101432 0)
(-0.0976849 0.00962604 0)
(-0.102733 0.00908966 0)
(-0.107493 0.00854358 0)
(-0.111962 0.00799583 0)
(-0.11614 0.00745297 0)
(-0.120029 0.00692023 0)
(-0.123636 0.00640159 0)
(-0.126969 0.00589993 0)
(-0.130036 0.00541709 0)
(-0.132846 0.00495405 0)
(-0.135411 0.00451098 0)
(-0.137739 0.00408736 0)
(-0.139841 0.00368205 0)
(-0.141726 0.0032934 0)
(-0.143402 0.00291931 0)
(-0.144875 0.00255728 0)
(-0.146151 0.00220448 0)
(-0.147234 0.00185783 0)
(-0.148126 0.001514 0)
(-0.148827 0.0011695 0)
(-0.149337 0.00082071 0)
(-0.149653 0.000463947 0)
(-0.149768 9.54874e-05 0)
(-0.149676 -0.000288356 0)
(-0.149369 -0.000691176 0)
(-0.148835 -0.00111641 0)
(-0.148063 -0.00156723 0)
(-0.147037 -0.00204652 0)
(-0.145744 -0.00255669 0)
(-0.144168 -0.00309964 0)
(-0.14229 -0.00367659 0)
(-0.140094 -0.00428795 0)
(-0.137563 -0.00493319 0)
(-0.13468 -0.00561068 0)
(-0.13143 -0.0063175 0)
(-0.1278 -0.00704934 0)
(-0.12378 -0.00780028 0)
(-0.119361 -0.00856268 0)
(-0.114542 -0.00932705 0)
(-0.109326 -0.0100819 0)
(-0.103721 -0.0108139 0)
(-0.0977456 -0.0115075 0)
(-0.0914239 -0.0121452 0)
(-0.0847906 -0.0127077 0)
(-0.0778903 -0.0131743 0)
(-0.0707784 -0.0135227 0)
(-0.0635213 -0.0137298 0)
(-0.056197 -0.0137722 0)
(-0.0488946 -0.0136271 0)
(-0.0417132 -0.013273 0)
(-0.0347613 -0.0126909 0)
(-0.0281541 -0.0118663 0)
(-0.0220108 -0.0107913 0)
(-0.0164501 -0.00946801 0)
(-0.0115841 -0.00791392 0)
(-0.00751109 -0.00617004 0)
(-0.00430329 -0.00431379 0)
(-0.00199263 -0.00247678 0)
(-0.000580346 -0.000873983 0)
(-4.90241e-05 0.000119696 0)
(-0.000109197 0.000197823 0)
(-0.000870533 0.00181782 0)
(-0.00267533 0.00405767 0)
(-0.00545065 0.00653037 0)
(-0.00915009 0.00899853 0)
(-0.0137242 0.0113095 0)
(-0.0190923 0.0133705 0)
(-0.0251532 0.0151317 0)
(-0.031795 0.0165724 0)
(-0.0389022 0.017692 0)
(-0.0463599 0.0185028 0)
(-0.054058 0.0190258 0)
(-0.0618938 0.019287 0)
(-0.0697741 0.0193153 0)
(-0.0776158 0.0191409 0)
(-0.0853465 0.0187935 0)
(-0.0929046 0.0183019 0)
(-0.100239 0.0176932 0)
(-0.107309 0.0169925 0)
(-0.114081 0.0162223 0)
(-0.120533 0.0154029 0)
(-0.126648 0.0145517 0)
(-0.132414 0.013684 0)
(-0.137829 0.0128124 0)
(-0.142891 0.0119475 0)
(-0.147605 0.0110975 0)
(-0.151977 0.0102688 0)
(-0.156016 0.00946612 0)
(-0.159733 0.00869244 0)
(-0.163139 0.00794938 0)
(-0.166245 0.00723731 0)
(-0.169064 0.00655548 0)
(-0.171607 0.00590217 0)
(-0.173885 0.00527484 0)
(-0.175907 0.00467021 0)
(-0.177681 0.00408439 0)
(-0.179214 0.00351297 0)
(-0.18051 0.00295112 0)
(-0.181572 0.00239363 0)
(-0.182401 0.00183504 0)
(-0.182995 0.00126969 0)
(-0.183351 0.000691814 0)
(-0.183462 9.56025e-05 0)
(-0.18332 -0.00052469 0)
(-0.182915 -0.00117465 0)
(-0.182235 -0.00185961 0)
(-0.181264 -0.00258449 0)
(-0.179988 -0.00335369 0)
(-0.178388 -0.00417092 0)
(-0.176444 -0.00503902 0)
(-0.174139 -0.00595979 0)
(-0.171451 -0.00693374 0)
(-0.16836 -0.00795989 0)
(-0.164848 -0.00903554 0)
(-0.160896 -0.010156 0)
(-0.156489 -0.0113143 0)
(-0.151616 -0.0125012 0)
(-0.146268 -0.0137045 0)
(-0.140443 -0.0149093 0)
(-0.134143 -0.0160977 0)
(-0.127382 -0.0172487 0)
(-0.120177 -0.018338 0)
(-0.112559 -0.0193387 0)
(-0.104567 -0.0202208 0)
(-0.0962553 -0.0209521 0)
(-0.0876867 -0.0214985 0)
(-0.0789391 -0.0218247 0)
(-0.0701026 -0.0218953 0)
(-0.0612802 -0.0216759 0)
(-0.0525865 -0.0211347 0)
(-0.044146 -0.0202444 0)
(-0.0360907 -0.018985 0)
(-0.0285568 -0.017347 0)
(-0.0216797 -0.0153365 0)
(-0.0155885 -0.0129817 0)
(-0.0103988 -0.010343 0)
(-0.00620127 -0.00752746 0)
(-0.00305033 -0.00470651 0)
(-0.000997559 -0.00214345 0)
(-0.000127168 -0.000264738 0)
(-0.000174475 0.000725162 0)
(-0.00123516 0.00339769 0)
(-0.00361773 0.00668491 0)
(-0.00715241 0.0101773 0)
(-0.0117396 0.0136095 0)
(-0.0173027 0.0168036 0)
(-0.02374 0.019647 0)
(-0.0309323 0.0220766 0)
(-0.038753 0.0240652 0)
(-0.0470731 0.0256107 0)
(-0.055765 0.0267285 0)
(-0.0647071 0.0274459 0)
(-0.0737859 0.0277979 0)
(-0.0828981 0.0278234 0)
(-0.0919516 0.0275637 0)
(-0.100866 0.02706 0)
(-0.109574 0.026352 0)
(-0.118017 0.0254779 0)
(-0.126151 0.0244725 0)
(-0.133939 0.0233679 0)
(-0.141356 0.0221924 0)
(-0.148383 0.020971 0)
(-0.155008 0.0197251 0)
(-0.161228 0.0184729 0)
(-0.167041 0.0172293 0)
(-0.172453 0.0160062 0)
(-0.177472 0.0148128 0)
(-0.182107 0.0136557 0)
(-0.18637 0.0125394 0)
(-0.190275 0.0114661 0)
(-0.193835 0.0104365 0)
(-0.197064 0.0094496 0)
(-0.199974 0.00850299 0)
(-0.202577 0.00759309 0)
(-0.204884 0.0067153 0)
(-0.206905 0.00586413 0)
(-0.208647 0.00503333 0)
(-0.210115 0.00421608 0)
(-0.211312 0.00340501 0)
(-0.212239 0.00259242 0)
(-0.212894 0.00177029 0)
(-0.213274 0.000930495 0)
(-0.213372 6.48313e-05 0)
(-0.213178 -0.000834792 0)
(-0.212682 -0.00177624 0)
(-0.211869 -0.00276697 0)
(-0.210723 -0.00381391 0)
(-0.209226 -0.00492318 0)
(-0.207359 -0.00609995 0)
(-0.2051 -0.00734814 0)
(-0.202427 -0.00867018 0)
(-0.199319 -0.0100667 0)
(-0.195752 -0.0115362 0)
(-0.191705 -0.0130747 0)
(-0.187159 -0.0146756 0)
(-0.182096 -0.016329 0)
(-0.176503 -0.0180215 0)
(-0.17037 -0.0197362 0)
(-0.163694 -0.0214519 0)
(-0.156478 -0.0231434 0)
(-0.148735 -0.024781 0)
(-0.140486 -0.026331 0)
(-0.131763 -0.0277552 0)
(-0.122611 -0.0290119 0)
(-0.113086 -0.030056 0)
(-0.103259 -0.0308401 0)
(-0.0932159 -0.0313153 0)
(-0.0830556 -0.0314326 0)
(-0.0728915 -0.031145 0)
(-0.0628497 -0.0304092 0)
(-0.0530676 -0.0291888 0)
(-0.043691 -0.0274576 0)
(-0.0348706 -0.0252042 0)
(-0.0267574 -0.022438 0)
(-0.0194977 -0.0191968 0)
(-0.0132269 -0.0155577 0)
(-0.00805923 -0.0116513 0)
(-0.00407879 -0.00767862 0)
(-0.00139519 -0.00393376 0)
(-0.000198242 -0.000865413 0)
(-0.000233255 0.00143642 0)
(-0.00157675 0.00543615 0)
(-0.00451675 0.0099745 0)
(-0.00878962 0.0146382 0)
(-0.01424 0.0191481 0)
(-0.0207601 0.0233105 0)
(-0.0282228 0.0269999 0)
(-0.036489 0.0301444 0)
(-0.0454153 0.0327129 0)
(-0.0548591 0.0347035 0)
(-0.0646811 0.0361363 0)
(-0.0747492 0.0370459 0)
(-0.084941 0.037477 0)
(-0.0951451 0.0374799 0)
(-0.105263 0.0371078 0)
(-0.115208 0.0364143 0)
(-0.124908 0.0354515 0)
(-0.134303 0.0342692 0)
(-0.143343 0.0329134 0)
(-0.15199 0.031426 0)
(-0.160218 0.0298447 0)
(-0.168008 0.0282024 0)
(-0.175348 0.0265276 0)
(-0.182234 0.0248442 0)
(-0.188666 0.0231721 0)
(-0.194652 0.0215271 0)
(-0.200198 0.0199213 0)
(-0.205318 0.0183636 0)
(-0.210025 0.01686 0)
(-0.214332 0.0154135 0)
(-0.218257 0.014025 0)
(-0.221813 0.0126931 0)
(-0.225014 0.0114147 0)
(-0.227875 0.010185 0)
(-0.230407 0.00899801 0)
(-0.23262 0.00784639 0)
(-0.234523 0.0067219 0)
(-0.236122 0.00561547 0)
(-0.23742 0.00451739 0)
(-0.238418 0.00341742 0)
(-0.239114 0.002305 0)
(-0.239506 0.00116937 0)
(-0.239584 -3.01818e-07 0)
(-0.23934 -0.00121468 0)
(-0.238762 -0.00248413 0)
(-0.237834 -0.00381849 0)
(-0.236539 -0.00522685 0)
(-0.234858 -0.00671727 0)
(-0.232769 -0.00829651 0)
(-0.23025 -0.00996971 0)
(-0.227276 -0.01174 0)
(-0.223824 -0.0136083 0)
(-0.219868 -0.0155724 0)
(-0.215386 -0.0176273 0)
(-0.210355 -0.019764 0)
(-0.204757 -0.0219695 0)
(-0.198576 -0.0242265 0)
(-0.1918 -0.0265124 0)
(-0.184426 -0.0287996 0)
(-0.176456 -0.0310549 0)
(-0.167901 -0.0332393 0)
(-0.158783 -0.0353085 0)
(-0.149136 -0.0372127 0)
(-0.139005 -0.038897 0)
(-0.12845 -0.0403025 0)
(-0.117545 -0.0413672 0)
(-0.106382 -0.0420272 0)
(-0.0950654 -0.0422189 0)
(-0.0837166 -0.041881 0)
(-0.0724707 -0.0409579 0)
(-0.0614756 -0.0394027 0)
(-0.0508889 -0.0371817 0)
(-0.0408753 -0.0342803 0)
(-0.0316014 -0.0307091 0)
(-0.0232323 -0.0265127 0)
(-0.0159262 -0.0217804 0)
(-0.00982505 -0.0166595 0)
(-0.00504711 -0.0113697 0)
(-0.00176223 -0.00622124 0)
(-0.000261089 -0.00166498 0)
(-0.000285857 0.00231695 0)
(-0.00189252 0.00790833 0)
(-0.00536066 0.0138986 0)
(-0.0103391 0.0198831 0)
(-0.0166174 0.0255795 0)
(-0.0240538 0.0307878 0)
(-0.0324936 0.0353764 0)
(-0.0417746 0.0392697 0)
(-0.0517357 0.0424361 0)
(-0.0622195 0.0448772 0)
(-0.0730749 0.0466193 0)
(-0.0841601 0.0477065 0)
(-0.0953448 0.0481943 0)
(-0.106511 0.0481458 0)
(-0.117555 0.0476273 0)
(-0.128388 0.0467057 0)
(-0.138932 0.0454466 0)
(-0.149127 0.0439122 0)
(-0.158921 0.0421603 0)
(-0.168278 0.0402438 0)
(-0.177169 0.03821 0)
(-0.185576 0.0361004 0)
(-0.193489 0.0339507 0)
(-0.200905 0.0317913 0)
(-0.207826 0.029647 0)
(-0.21426 0.0275378 0)
(-0.220217 0.0254791 0)
(-0.22571 0.0234819 0)
(-0.230756 0.0215536 0)
(-0.23537 0.0196981 0)
(-0.23957 0.0179164 0)
(-0.243371 0.0162068 0)
(-0.246789 0.0145653 0)
(-0.24984 0.0129857 0)
(-0.252535 0.0114605 0)
(-0.254888 0.00998031 0)
(-0.256905 0.00853474 0)
(-0.258595 0.00711232 0)
(-0.259961 0.00570077 0)
(-0.261004 0.00428717 0)
(-0.261724 0.00285819 0)
(-0.262116 0.00140025 0)
(-0.262172 -0.000100289 0)
(-0.261883 -0.00165688 0)
(-0.261236 -0.00328257 0)
(-0.260214 -0.00498976 0)
(-0.258801 -0.00678988 0)
(-0.256974 -0.0086931 0)
(-0.254713 -0.010708 0)
(-0.251992 -0.012841 0)
(-0.248786 -0.0150961 0)
(-0.245069 -0.0174745 0)
(-0.240815 -0.0199737 0)
(-0.235998 -0.0225873 0)
(-0.230594 -0.0253043 0)
(-0.224582 -0.0281086 0)
(-0.217944 -0.0309785 0)
(-0.210668 -0.0338859 0)
(-0.202745 -0.0367964 0)
(-0.194177 -0.0396685 0)
(-0.184975 -0.0424536 0)
(-0.175157 -0.0450963 0)
(-0.164756 -0.0475341 0)
(-0.153819 -0.0496986 0)
(-0.142405 -0.0515159 0)
(-0.130591 -0.0529083 0)
(-0.118469 -0.0537959 0)
(-0.106149 -0.0540989 0)
(-0.0937588 -0.0537407 0)
(-0.0814394 -0.0526512 0)
(-0.0693478 -0.0507716 0)
(-0.0576532 -0.0480588 0)
(-0.0465336 -0.0444924 0)
(-0.0361727 -0.0400815 0)
(-0.0267559 -0.0348734 0)
(-0.0184669 -0.0289642 0)
(-0.0114784 -0.0225107 0)
(-0.00594551 -0.0157421 0)
(-0.00209704 -0.0089731 0)
(-0.000316386 -0.00264487 0)
(-0.000333125 0.00335255 0)
(-0.00218348 0.0107862 0)
(-0.00614761 0.0184232 0)
(-0.011794 0.0258742 0)
(-0.0188589 0.0328621 0)
(-0.0271658 0.0391881 0)
(-0.0365304 0.044721 0)
(-0.0467657 0.049387 0)
(-0.057691 0.0531583 0)
(-0.0691333 0.0560433 0)
(-0.0809292 0.0580776 0)
(-0.0929275 0.0593164 0)
(-0.104991 0.0598286 0)
(-0.116996 0.0596911 0)
(-0.128835 0.0589849 0)
(-0.140416 0.0577916 0)
(-0.151663 0.0561908 0)
(-0.162512 0.0542583 0)
(-0.172914 0.0520644 0)
(-0.182832 0.0496734 0)
(-0.19224 0.0471426 0)
(-0.201122 0.0445225 0)
(-0.209469 0.0418565 0)
(-0.217281 0.0391813 0)
(-0.224561 0.036527 0)
(-0.23132 0.0339178 0)
(-0.237571 0.031372 0)
(-0.243329 0.0289031 0)
(-0.248611 0.0265199 0)
(-0.253435 0.0242269 0)
(-0.25782 0.0220251 0)
(-0.261785 0.0199123 0)
(-0.265346 0.0178835 0)
(-0.268519 0.0159311 0)
(-0.271318 0.0140457 0)
(-0.273756 0.012216 0)
(-0.275843 0.0104291 0)
(-0.277585 0.00867108 0)
(-0.278988 0.00692686 0)
(-0.280053 0.00518072 0)
(-0.28078 0.0034164 0)
(-0.281163 0.00161734 0)
(-0.281196 -0.000233045 0)
(-0.280869 -0.00215116 0)
(-0.280168 -0.0041529 0)
(-0.279077 -0.00625338 0)
(-0.277578 -0.00846656 0)
(-0.275649 -0.0108049 0)
(-0.273266 -0.0132788 0)
(-0.270405 -0.0158964 0)
(-0.267038 -0.0186627 0)
(-0.263138 -0.0215793 0)
(-0.258677 -0.0246436 0)
(-0.253627 -0.027848 0)
(-0.247962 -0.0311796 0)
(-0.241659 -0.0346193 0)
(-0.234695 -0.0381412 0)
(-0.227057 -0.0417119 0)
(-0.218734 -0.0452899 0)
(-0.209723 -0.0488255 0)
(-0.200032 -0.0522602 0)
(-0.189677 -0.0555272 0)
(-0.178689 -0.0585511 0)
(-0.167111 -0.061249 0)
(-0.155001 -0.0635314 0)
(-0.142436 -0.0653038 0)
(-0.129509 -0.066469 0)
(-0.116331 -0.0669298 0)
(-0.103033 -0.0665921 0)
(-0.0897622 -0.06537 0)
(-0.0766839 -0.0631898 0)
(-0.063978 -0.0599968 0)
(-0.0518366 -0.0557614 0)
(-0.0404612 -0.0504873 0)
(-0.0300597 -0.0442201 0)
(-0.0208434 -0.037057 0)
(-0.0130176 -0.0291577 0)
(-0.00677545 -0.0207531 0)
(-0.00240222 -0.0121548 0)
(-0.000365378 -0.00378783 0)
(-0.000375995 0.00453051 0)
(-0.00245226 0.0140423 0)
(-0.00688093 0.0235124 0)
(-0.0131566 0.0325706 0)
(-0.0209649 0.0409506 0)
(-0.030094 0.0484608 0)
(-0.0403288 0.0549764 0)
(-0.0514563 0.0604305 0)
(-0.0632746 0.0648039 0)
(-0.0755942 0.0681157 0)
(-0.088239 0.070414 0)
(-0.101048 0.0717683 0)
(-0.113878 0.0722627 0)
(-0.1266 0.0719903 0)
(-0.139106 0.0710481 0)
(-0.151301 0.0695338 0)
(-0.16311 0.0675422 0)
(-0.174471 0.0651632 0)
(-0.185336 0.0624805 0)
(-0.195671 0.05957 0)
(-0.205453 0.0564997 0)
(-0.214669 0.053329 0)
(-0.223312 0.0501092 0)
(-0.231387 0.0468833 0)
(-0.238899 0.0436867 0)
(-0.245861 0.0405474 0)
(-0.25229 0.0374872 0)
(-0.258202 0.0345212 0)
(-0.263618 0.0316597 0)
(-0.268557 0.0289077 0)
(-0.27304 0.026266 0)
(-0.277088 0.0237318 0)
(-0.280717 0.0212988 0)
(-0.283946 0.018958 0)
(-0.286791 0.0166979 0)
(-0.289263 0.0145049 0)
(-0.291374 0.0123637 0)
(-0.293133 0.0102577 0)
(-0.294543 0.00816897 0)
(-0.295608 0.00607885 0)
(-0.296326 0.00396802 0)
(-0.296694 0.00181683 0)
(-0.296705 -0.000394414 0)
(-0.296349 -0.00268516 0)
(-0.295612 -0.0050743 0)
(-0.294477 -0.0075798 0)
(-0.292927 -0.0102183 0)
(-0.290939 -0.0130047 0)
(-0.288488 -0.0159516 0)
(-0.285549 -0.0190689 0)
(-0.282094 -0.0223628 0)
(-0.278094 -0.0258356 0)
(-0.273518 -0.0294848 0)
(-0.268337 -0.0333021 0)
(-0.262523 -0.0372729 0)
(-0.256049 -0.0413754 0)
(-0.248892 -0.0455798 0)
(-0.24103 -0.0498474 0)
(-0.232452 -0.0541303 0)
(-0.223151 -0.0583704 0)
(-0.213128 -0.0624996 0)
(-0.202397 -0.0664392 0)
(-0.190983 -0.0701009 0)
(-0.178926 -0.0733867 0)
(-0.16628 -0.0761908 0)
(-0.153119 -0.0784011 0)
(-0.139534 -0.0799015 0)
(-0.125637 -0.0805757 0)
(-0.111561 -0.0803104 0)
(-0.0974569 -0.079001 0)
(-0.0834981 -0.0765565 0)
(-0.0698748 -0.0729068 0)
(-0.0567939 -0.0680096 0)
(-0.0444759 -0.0618587 0)
(-0.0331525 -0.054493 0)
(-0.0230644 -0.0460054 0)
(-0.0144513 -0.0365523 0)
(-0.00754411 -0.0263607 0)
(-0.00268213 -0.0157341 0)
(-0.000409392 -0.00507902 0)
(-0.000415363 0.00583993 0)
(-0.00270214 0.0176515 0)
(-0.00756664 0.0291319 0)
(-0.014435 0.0399316 0)
(-0.0229439 0.0497988 0)
(-0.0328466 0.0585538 0)
(-0.0438963 0.0660834 0)
(-0.0558527 0.0723328 0)
(-0.0684918 0.0772964 0)
(-0.0816066 0.0810079 0)
(-0.095008 0.083532 0)
(-0.108526 0.0849555 0)
(-0.12201 0.0853808 0)
(-0.135329 0.0849193 0)
(-0.148372 0.083686 0)
(-0.161047 0.0817959 0)
(-0.173279 0.0793602 0)
(-0.185009 0.0764841 0)
(-0.196194 0.0732648 0)
(-0.206802 0.0697905 0)
(-0.216815 0.0661398 0)
(-0.226224 0.0623814 0)
(-0.235028 0.0585742 0)
(-0.243233 0.0547674 0)
(-0.250849 0.0510015 0)
(-0.257894 0.0473084 0)
(-0.264386 0.0437125 0)
(-0.270344 0.0402309 0)
(-0.275793 0.0368748 0)
(-0.280753 0.0336494 0)
(-0.285248 0.0305554 0)
(-0.289298 0.0275888 0)
(-0.292925 0.0247421 0)
(-0.296145 0.0220045 0)
(-0.298977 0.0193622 0)
(-0.301434 0.0167995 0)
(-0.303527 0.0142985 0)
(-0.305265 0.0118395 0)
(-0.306655 0.00940193 0)
(-0.307698 0.00696391 0)
(-0.308396 0.00450302 0)
(-0.308743 0.00199646 0)
(-0.308734 -0.000578666 0)
(-0.308359 -0.00324496 0)
(-0.307604 -0.00602443 0)
(-0.306453 -0.00893801 0)
(-0.304887 -0.0120052 0)
(-0.302884 -0.0152435 0)
(-0.30042 -0.0186679 0)
(-0.297467 -0.0222902 0)
(-0.293996 -0.0261184 0)
(-0.289978 -0.0301556 0)
(-0.28538 -0.0343998 0)
(-0.280171 -0.0388424 0)
(-0.27432 -0.0434675 0)
(-0.267796 -0.0482512 0)
(-0.260573 -0.0531601 0)
(-0.252627 -0.0581509 0)
(-0.243939 -0.0631693 0)
(-0.234498 -0.0681496 0)
(-0.2243 -0.0730139 0)
(-0.213352 -0.0776723 0)
(-0.201672 -0.0820229 0)
(-0.189296 -0.0859527 0)
(-0.176271 -0.0893388 0)
(-0.162667 -0.0920502 0)
(-0.148571 -0.093951 0)
(-0.134094 -0.0949035 0)
(-0.119368 -0.094773 0)
(-0.104548 -0.0934332 0)
(-0.0898142 -0.0907725 0)
(-0.0753667 -0.0867015 0)
(-0.0614278 -0.0811606 0)
(-0.0482378 -0.074129 0)
(-0.036054 -0.0656336 0)
(-0.0251477 -0.0557575 0)
(-0.0157936 -0.0446491 0)
(-0.00826139 -0.0325267 0)
(-0.00294176 -0.019683 0)
(-0.000449676 -0.00650642 0)
(-0.000452056 0.00727188 0)
(-0.00293668 0.0215917 0)
(-0.00821217 0.0352505 0)
(-0.0156399 0.0479189 0)
(-0.0248094 0.0593616 0)
(-0.0354386 0.0694153 0)
(-0.0472482 0.0779826 0)
(-0.0599697 0.0850259 0)
(-0.0733561 0.0905579 0)
(-0.0871823 0.0946321 0)
(-0.101246 0.0973334 0)
(-0.115368 0.0987702 0)
(-0.129392 0.0990659 0)
(-0.143185 0.0983529 0)
(-0.156635 0.0967665 0)
(-0.169653 0.0944405 0)
(-0.182167 0.0915038 0)
(-0.194123 0.0880776 0)
(-0.205482 0.0842733 0)
(-0.216219 0.0801915 0)
(-0.226321 0.0759217 0)
(-0.235783 0.0715415 0)
(-0.24461 0.0671173 0)
(-0.252814 0.0627045 0)
(-0.260409 0.058348 0)
(-0.267416 0.0540833 0)
(-0.273857 0.0499372 0)
(-0.279756 0.0459283 0)
(-0.285138 0.0420683 0)
(-0.290027 0.0383626 0)
(-0.294448 0.0348109 0)
(-0.298424 0.0314084 0)
(-0.301976 0.0281457 0)
(-0.305126 0.0250102 0)
(-0.307889 0.0219859 0)
(-0.310281 0.0190544 0)
(-0.312315 0.0161951 0)
(-0.314 0.0133855 0)
(-0.315342 0.010602 0)
(-0.316345 0.00781962 0)
(-0.317009 0.0050127 0)
(-0.317331 0.00215521 0)
(-0.317305 -0.000778961 0)
(-0.316922 -0.00381568 0)
(-0.316168 -0.00698012 0)
(-0.315029 -0.0102963 0)
(-0.313483 -0.0137868 0)
(-0.311511 -0.0174719 0)
(-0.309086 -0.021369 0)
(-0.306182 -0.0254924 0)
(-0.302768 -0.0298518 0)
(-0.298814 -0.034452 0)
(-0.294285 -0.0392916 0)
(-0.289149 -0.0443623 0)
(-0.283371 -0.0496475 0)
(-0.276918 -0.0551217 0)
(-0.269759 -0.0607488 0)
(-0.261865 -0.0664812 0)
(-0.253211 -0.0722593 0)
(-0.243781 -0.0780098 0)
(-0.233563 -0.083646 0)
(-0.222557 -0.0890668 0)
(-0.210773 -0.0941569 0)
(-0.198238 -0.0987881 0)
(-0.184994 -0.10282 0)
(-0.171102 -0.106101 0)
(-0.156644 -0.108475 0)
(-0.141726 -0.10978 0)
(-0.126481 -0.109857 0)
(-0.111064 -0.108555 0)
(-0.0956609 -0.105739 0)
(-0.080483 -0.101294 0)
(-0.0657673 -0.0951388 0)
(-0.0517751 -0.0872329 0)
(-0.0387899 -0.0775856 0)
(-0.0271151 -0.0662652 0)
(-0.0170618 -0.0534072 0)
(-0.00893843 -0.0392182 0)
(-0.00318619 -0.0239785 0)
(-0.000487367 -0.00806079 0)
(-0.000486845 0.00881936 0)
(-0.00315954 0.025845 0)
(-0.00882578 0.0418413 0)
(-0.0167844 0.0564977 0)
(-0.0265783 0.069597 0)
(-0.0378893 0.0809948 0)
(-0.0504049 0.0906146 0)
(-0.0638275 0.0984407 0)
(-0.0778862 0.104509 0)
(-0.0923376 0.108898 0)
(-0.106966 0.111717 0)
(-0.121583 0.113101 0)
(-0.136029 0.113198 0)
(-0.150168 0.112163 0)
(-0.163891 0.110155 0)
(-0.177112 0.107328 0)
(-0.189764 0.10383 0)
(-0.201799 0.0997986 0)
(-0.213185 0.0953605 0)
(-0.223904 0.0906288 0)
(-0.23395 0.0857035 0)
(-0.243325 0.0806711 0)
(-0.25204 0.0756049 0)
(-0.260111 0.070566 0)
(-0.26756 0.0656036 0)
(-0.27441 0.060756 0)
(-0.280688 0.0560519 0)
(-0.286422 0.051511 0)
(-0.291639 0.0471451 0)
(-0.296367 0.0429593 0)
(-0.300631 0.0389522 0)
(-0.304457 0.0351174 0)
(-0.307868 0.0314439 0)
(-0.310885 0.0279168 0)
(-0.313526 0.0245176 0)
(-0.315807 0.0212254 0)
(-0.317742 0.0180167 0)
(-0.319341 0.0148662 0)
(-0.320611 0.011747 0)
(-0.321555 0.00863097 0)
(-0.322175 0.00548941 0)
(-0.322469 0.00229295 0)
(-0.32243 -0.000987795 0)
(-0.32205 -0.00438196 0)
(-0.321317 -0.00791798 0)
(-0.320215 -0.0116231 0)
(-0.318726 -0.0155229 0)
(-0.316828 -0.0196408 0)
(-0.314496 -0.023997 0)
(-0.311702 -0.0286082 0)
(-0.308416 -0.0334865 0)
(-0.304606 -0.0386385 0)
(-0.300236 -0.0440644 0)
(-0.295273 -0.0497564 0)
(-0.289677 -0.0556982 0)
(-0.283413 -0.0618633 0)
(-0.276445 -0.0682135 0)
(-0.268739 -0.0746982 0)
(-0.260264 -0.0812529 0)
(-0.250995 -0.087798 0)
(-0.240913 -0.0942383 0)
(-0.230009 -0.100462 0)
(-0.218285 -0.106341 0)
(-0.205756 -0.111732 0)
(-0.192454 -0.116475 0)
(-0.178433 -0.120401 0)
(-0.163765 -0.123327 0)
(-0.148552 -0.125067 0)
(-0.132921 -0.125436 0)
(-0.11703 -0.124253 0)
(-0.101068 -0.121354 0)
(-0.0852556 -0.116596 0)
(-0.0698453 -0.109869 0)
(-0.0551195 -0.101107 0)
(-0.0413892 -0.0902964 0)
(-0.0289912 -0.0774853 0)
(-0.0182743 -0.062792 0)
(-0.00958675 -0.046409 0)
(-0.00342044 -0.0286036 0)
(-0.000523504 -0.00973562 0)
(-0.000520468 0.0104774 0)
(-0.00337444 0.0303977 0)
(-0.00941629 0.0488825 0)
(-0.0178828 0.065638 0)
(-0.0282695 0.0804661 0)
(-0.0402211 0.0932444 0)
(-0.0533905 0.103921 0)
(-0.06745 0.112507 0)
(-0.0821043 0.119068 0)
(-0.0970912 0.123712 0)
(-0.112182 0.126579 0)
(-0.127181 0.127833 0)
(-0.141923 0.127651 0)
(-0.156275 0.126215 0)
(-0.170131 0.12371 0)
(-0.183408 0.120313 0)
(-0.196049 0.11619 0)
(-0.208012 0.111499 0)
(-0.219275 0.106378 0)
(-0.229827 0.100956 0)
(-0.23967 0.0953421 0)
(-0.248816 0.0896311 0)
(-0.257281 0.0839031 0)
(-0.265089 0.0782241 0)
(-0.272266 0.0726467 0)
(-0.278842 0.0672117 0)
(-0.284848 0.061949 0)
(-0.290314 0.0568787 0)
(-0.295271 0.0520124 0)
(-0.299749 0.047354 0)
(-0.303776 0.0429011 0)
(-0.307379 0.0386452 0)
(-0.310583 0.0345733 0)
(-0.313409 0.0306681 0)
(-0.315877 0.0269085 0)
(-0.318003 0.0232708 0)
(-0.319802 0.0197286 0)
(-0.321284 0.0162536 0)
(-0.322458 0.0128158 0)
(-0.323327 0.00938409 0)
(-0.323893 0.00592636 0)
(-0.324155 0.00241009 0)
(-0.324107 -0.0011974 0)
(-0.323742 -0.00492854 0)
(-0.323049 -0.00881502 0)
(-0.322011 -0.0128874 0)
(-0.320612 -0.0171744 0)
(-0.31883 -0.0217026 0)
(-0.316641 -0.0264953 0)
(-0.314017 -0.0315721 0)
(-0.310928 -0.0369477 0)
(-0.30734 -0.0426312 0)
(-0.303217 -0.0486245 0)
(-0.298523 -0.0549216 0)
(-0.293216 -0.0615069 0)
(-0.287257 -0.0683537 0)
(-0.280606 -0.0754232 0)
(-0.273222 -0.0826623 0)
(-0.265069 -0.090003 0)
(-0.256113 -0.0973603 0)
(-0.246325 -0.104631 0)
(-0.235687 -0.111695 0)
(-0.224188 -0.11841 0)
(-0.211833 -0.124619 0)
(-0.198642 -0.130143 0)
(-0.184655 -0.13479 0)
(-0.169938 -0.138355 0)
(-0.154581 -0.140624 0)
(-0.138707 -0.141379 0)
(-0.12247 -0.140409 0)
(-0.106064 -0.137514 0)
(-0.0897165 -0.132517 0)
(-0.0736952 -0.125275 0)
(-0.058304 -0.11569 0)
(-0.0438822 -0.103717 0)
(-0.0308015 -0.08938 0)
(-0.01945 -0.0727757 0)
(-0.010218 -0.0540796 0)
(-0.00364944 -0.0335466 0)
(-0.000559051 -0.0115271 0)
(-0.000553667 0.0122428 0)
(-0.0035853 0.0352404 0)
(-0.00999311 0.0563578 0)
(-0.0189506 0.0753155 0)
(-0.0299038 0.091935 0)
(-0.0424586 0.106119 0)
(-0.0562315 0.117844 0)
(-0.0708634 0.127154 0)
(-0.0860337 0.13415 0)
(-0.101462 0.138976 0)
(-0.116907 0.141807 0)
(-0.132166 0.142842 0)
(-0.147073 0.142292 0)
(-0.161497 0.14037 0)
(-0.175336 0.137288 0)
(-0.188517 0.133245 0)
(-0.20099 0.128433 0)
(-0.212725 0.123024 0)
(-0.223708 0.117175 0)
(-0.23394 0.111024 0)
(-0.243433 0.104692 0)
(-0.252205 0.0982814 0)
(-0.260283 0.0918777 0)
(-0.267697 0.085551 0)
(-0.274479 0.0793568 0)
(-0.280665 0.0733373 0)
(-0.28629 0.0675228 0)
(-0.291387 0.0619334 0)
(-0.295991 0.0565797 0)
(-0.300135 0.0514642 0)
(-0.303848 0.0465824 0)
(-0.307158 0.0419241 0)
(-0.310092 0.0374734 0)
(-0.312672 0.0332106 0)
(-0.314918 0.029112 0)
(-0.316848 0.0251508 0)
(-0.318476 0.0212977 0)
(-0.319813 0.0175215 0)
(-0.320868 0.0137891 0)
(-0.321646 0.0100661 0)