-0.498047 	0.00925758 	4.82815e-18 	1.08847 	1.02459
-0.496796 	0.00931084 	7.60397e-18 	1.13865 	1.03798
-0.495545 	0.00936409 	6.21647e-18 	1.19329 	1.05222
-0.494294 	0.00941735 	4.82896e-18 	1.23312 	1.06235
-0.493043 	0.0094706 	8.64562e-18 	1.26084 	1.06926
-0.491792 	0.00952386 	1.07276e-17 	1.29569 	1.07779
-0.49054 	0.00957711 	1.14217e-17 	1.3223 	1.08432
-0.489289 	0.00963037 	1.55853e-17 	1.33338 	1.08709
-0.488038 	0.00968362 	1.62795e-17 	1.34726 	1.09033
-0.486787 	0.00973688 	1.73206e-17 	1.35419 	1.09214
-0.485536 	0.00979013 	1.90556e-17 	1.35301 	1.09189
-0.484285 	0.00984339 	2.07906e-17 	1.34813 	1.09076
-0.483034 	0.00989664 	2.42603e-17 	1.33568 	1.08787
-0.481783 	0.0099499 	2.32197e-17 	1.31982 	1.08414
-0.480532 	0.0100032 	2.42608e-17 	1.30891 	1.08149
-0.47928 	0.0100564 	2.4608e-17 	1.29744 	1.07874
-0.478029 	0.0101097 	1.73225e-17 	1.28469 	1.07566
-0.476778 	0.0101629 	1.28125e-17 	1.28015 	1.07449
-0.475527 	0.0102162 	1.24658e-17 	1.27974 	1.07433
-0.474276 	0.0102694 	1.07313e-17 	1.27847 	1.07397
-0.473025 	0.0103227 	1.03846e-17 	1.27569 	1.07327
-0.471774 	0.0103759 	1.42013e-17 	1.27186 	1.07233
-0.470523 	0.0104292 	1.87119e-17 	1.26836 	1.0715
-0.469271 	0.0104825 	1.90591e-17 	1.26763 	1.07133
-0.46802 	0.0105357 	1.87124e-17 	1.26718 	1.07121
-0.466769 	0.010589 	2.18352e-17 	1.26577 	1.07087
-0.465518 	0.0106422 	2.42641e-17 	1.26357 	1.07032
-0.464267 	0.0106955 	2.6346e-17 	1.26301 	1.07017
-0.463016 	0.0107487 	3.01626e-17 	1.26236 	1.07001
-0.461765 	0.010802 	3.08568e-17 	1.26083 	1.06965
-0.460514 	0.0108552 	2.91224e-17 	1.25888 	1.06919
-0.459263 	0.0109085 	3.05104e-17 	1.25856 	1.06909
-0.458011 	0.0109617 	3.01637e-17 	1.25872 	1.06913
-0.45676 	0.011015 	2.84293e-17 	1.25954 	1.06933
-0.455509 	0.0110683 	2.63479e-17 	1.26115 	1.06973
-0.454258 	0.0111215 	2.46134e-17 	1.26337 	1.07026
-0.453007 	0.0111748 	2.56545e-17 	1.26542 	1.07074
-0.451756 	0.011228 	2.73895e-17 	1.267 	1.07112
-0.450505 	0.0112813 	2.66959e-17 	1.26876 	1.07154
-0.449254 	0.0113345 	2.42676e-17 	1.26925 	1.07165
-0.448002 	0.0113878 	2.42678e-17 	1.26906 	1.0716
-0.446751 	0.011441 	2.4615e-17 	1.2687 	1.07151
-0.4455 	0.0114943 	2.6697e-17 	1.26857 	1.07147
-0.444249 	0.0115476 	3.08606e-17 	1.26852 	1.07146
-0.442998 	0.0116008 	3.12078e-17 	1.26888 	1.07154
-0.441747 	0.0116541 	2.94733e-17 	1.26908 	1.07158
-0.440496 	0.0117073 	2.73919e-17 	1.26881 	1.07152
-0.439245 	0.0117606 	2.46167e-17 	1.26823 	1.07139
-0.437993 	0.0118138 	2.25353e-17 	1.26811 	1.07133
-0.436742 	0.0118671 	1.976e-17 	1.26812 	1.07132
-0.435491 	0.0119203 	1.94133e-17 	1.26808 	1.07131
-0.43424 	0.0119736 	2.18422e-17 	1.26802 	1.07129
-0.432989 	0.0120268 	2.4965e-17 	1.26803 	1.0713
-0.431738 	0.0120801 	2.6353e-17 	1.26825 	1.07135
-0.430487 	0.0121334 	2.73941e-17 	1.2686 	1.07143
-0.429236 	0.0121866 	2.67005e-17 	1.26868 	1.07145
-0.427985 	0.0122399 	2.28844e-17 	1.26858 	1.07142
-0.426733 	0.0122931 	1.35171e-17 	1.26823 	1.07133
-0.425482 	0.0123464 	7.61934e-18 	1.26807 	1.07129
-0.424231 	0.0123996 	9.00739e-18 	1.26803 	1.07129
-0.42298 	0.0124529 	1.14363e-17 	1.26802 	1.07128
-0.421729 	0.0125061 	1.24774e-17 	1.26812 	1.07131
-0.420478 	0.0125594 	1.28246e-17 	1.26845 	1.07139
-0.419227 	0.0126127 	1.62943e-17 	1.26853 	1.07141
-0.417976 	0.0126659 	1.76824e-17 	1.26839 	1.07137
-0.416724 	0.0127192 	1.38662e-17 	1.26804 	1.07127
-0.415473 	0.0127724 	1.0744e-17 	1.26776 	1.07121
-0.414222 	0.0128257 	1.21321e-17 	1.2677 	1.0712
-0.412971 	0.0128789 	1.21323e-17 	1.26769 	1.07119
-0.41172 	0.0129322 	1.00509e-17 	1.26777 	1.07122
-0.410469 	0.0129854 	8.31648e-18 	1.26813 	1.07131
-0.409218 	0.0130387 	7.62286e-18 	1.2685 	1.07139
-0.407967 	0.0130919 	9.7048e-18 	1.26853 	1.07139
-0.406716 	0.0131452 	1.0399e-17 	1.26839 	1.07135
-0.405464 	0.0131985 	8.66451e-18 	1.26807 	1.07127
-0.404213 	0.0132517 	9.01173e-18 	1.26777 	1.07121
-0.402962 	0.013305 	1.03998e-17 	1.26763 	1.07118
-0.401711 	0.0133582 	1.49103e-17 	1.2676 	1.07117
-0.40046 	0.0134115 	2.01148e-17 	1.26764 	1.07118
-0.399209 	0.0134647 	1.83803e-17 	1.26799 	1.07126
-0.397958 	0.013518 	1.52581e-17 	1.26845 	1.07137
-0.396707 	0.0135712 	1.734e-17 	1.26859 	1.0714
-0.395455 	0.0136245 	1.76872e-17 	1.2686 	1.0714
-0.394204 	0.0136778 	1.69936e-17 	1.26834 	1.07134
-0.392953 	0.013731 	2.11572e-17 	1.26794 	1.07124
-0.391702 	0.0137843 	2.67086e-17 	1.26775 	1.0712
-0.390451 	0.0138375 	2.67089e-17 	1.26768 	1.07118
-0.3892 	0.0138908 	2.39336e-17 	1.26765 	1.07117
-0.387949 	0.013944 	2.70564e-17 	1.26774 	1.07119
-0.386698 	0.0139973 	2.56689e-17 	1.26816 	1.07128
-0.385447 	0.0140505 	2.32405e-17 	1.26848 	1.07136
-0.384195 	0.0141038 	2.60164e-17 	1.26856 	1.07138
-0.382944 	0.014157 	2.67105e-17 	1.26857 	1.07138
-0.381693 	0.0142103 	2.67108e-17 	1.26842 	1.07134
-0.380442 	0.0142636 	3.01805e-17 	1.26809 	1.07126
-0.379191 	0.0143168 	3.43441e-17 	1.26794 	1.07122
-0.37794 	0.0143701 	3.29566e-17 	1.26787 	1.07121
-0.376689 	0.0144233 	2.94874e-17 	1.26785 	1.0712
-0.375438 	0.0144766 	2.84469e-17 	1.26804 	1.07124
-0.374186 	0.0145298 	2.77533e-17 	1.26835 	1.07132
-0.372935 	0.0145831 	2.56719e-17 	1.26844 	1.07134
-0.371684 	0.0146363 	2.25496e-17 	1.26845 	1.07134
-0.370433 	0.0146896 	1.90804e-17 	1.26838 	1.07132
-0.369182 	0.0147429 	1.76929e-17 	1.26814 	1.07126
-0.367931 	0.0147961 	1.59585e-17 	1.26796 	1.07122
-0.36668 	0.0148494 	1.52649e-17 	1.26788 	1.0712
-0.365429 	0.0149026 	1.38774e-17 	1.26782 	1.07119
-0.364178 	0.0149559 	1.38776e-17 	1.26781 	1.07118
-0.362926 	0.0150091 	1.52657e-17 	1.26789 	1.0712
-0.361675 	0.0150624 	1.45721e-17 	1.26816 	1.07127
-0.360424 	0.0151156 	1.56132e-17 	1.26836 	1.07131
-0.359173 	0.0151689 	1.56134e-17 	1.26845 	1.07134
-0.357922 	0.0152221 	1.59607e-17 	1.26849 	1.07134
-0.356671 	0.0152754 	1.49201e-17 	1.26845 	1.07133
-0.35542 	0.0153287 	1.76959e-17 	1.26822 	1.07128
-0.354169 	0.0153819 	2.11657e-17 	1.26799 	1.07122
-0.352917 	0.0154352 	2.18598e-17 	1.26787 	1.07119
-0.351666 	0.0154884 	2.63704e-17 	1.2678 	1.07117
-0.350415 	0.0155417 	2.70645e-17 	1.2678 	1.07117
-0.349164 	0.0155949 	2.42892e-17 	1.26792 	1.0712
-0.347913 	0.0156482 	2.32487e-17 	1.26816 	1.07126
-0.346662 	0.0157014 	2.67184e-17 	1.2683 	1.07129
-0.345411 	0.0157547 	3.26167e-17 	1.26835 	1.0713
-0.34416 	0.015808 	3.2964e-17 	1.26833 	1.07129
-0.342908 	0.0158612 	3.15764e-17 	1.26821 	1.07126
-0.341657 	0.0159145 	3.29645e-17 	1.26814 	1.07125
-0.340406 	0.0159677 	3.33117e-17 	1.26811 	1.07124
-0.339155 	0.016021 	3.50467e-17 	1.26811 	1.07124
-0.337904 	0.0160742 	3.57409e-17 	1.26822 	1.07126
-0.336653 	0.0161275 	3.40064e-17 	1.26837 	1.0713
-0.335402 	0.0161807 	3.1925e-17 	1.2684 	1.07131
-0.334151 	0.016234 	2.70681e-17 	1.26841 	1.07131
-0.3329 	0.0162872 	2.39458e-17 	1.26837 	1.0713
-0.331648 	0.0163405 	2.25583e-17 	1.26813 	1.07124
-0.330397 	0.0163938 	2.25586e-17 	1.268 	1.07121
-0.329146 	0.016447 	2.11711e-17 	1.26797 	1.0712
-0.327895 	0.0165003 	1.87428e-17 	1.26795 	1.0712
-0.326644 	0.0165535 	1.94369e-17 	1.26799 	1.07121
-0.325393 	0.0166068 	2.53353e-17 	1.26822 	1.07126
-0.324142 	0.01666 	2.98458e-17 	1.26845 	1.07131
-0.322891 	0.0167133 	2.67236e-17 	1.26852 	1.07133
-0.321639 	0.0167665 	2.46422e-17 	1.26854 	1.07133
-0.320388 	0.0168198 	2.152e-17 	1.26852 	1.07133
-0.319137 	0.0168731 	1.83977e-17 	1.2683 	1.07127
-0.317886 	0.0169263 	1.59694e-17 	1.26801 	1.0712
-0.316635 	0.0169796 	1.25002e-17 	1.26791 	1.07118
-0.315384 	0.0170328 	1.04188e-17 	1.26787 	1.07117
-0.314133 	0.0170861 	9.37826e-18 	1.26785 	1.07116
-0.312882 	0.0171393 	6.94992e-18 	1.26789 	1.07117
-0.311631 	0.0171926 	6.2563e-18 	1.26807 	1.07121
-0.310379 	0.0172458 	9.37908e-18 	1.26818 	1.07124
-0.309128 	0.0172991 	1.11141e-17 	1.26819 	1.07124
-0.307877 	0.0173523 	9.37962e-18 	1.26818 	1.07124
-0.306626 	0.0174056 	7.64517e-18 	1.26816 	1.07123
-0.305375 	0.0174589 	1.0421e-17 	1.26815 	1.07123
-0.304124 	0.0175121 	1.18091e-17 	1.26818 	1.07124
-0.302873 	0.0175654 	1.31971e-17 	1.26826 	1.07126
-0.301622 	0.0176186 	1.5626e-17 	1.26828 	1.07127
-0.30037 	0.0176719 	1.63202e-17 	1.26827 	1.07126
-0.299119 	0.0177251 	1.42388e-17 	1.26818 	1.07124
-0.297868 	0.0177784 	1.11165e-17 	1.26804 	1.07121
-0.296617 	0.0178316 	1.18107e-17 	1.26797 	1.0712
-0.295366 	0.0178849 	8.34152e-18 	1.26795 	1.07119
-0.294115 	0.0179382 	4.87235e-18 	1.26795 	1.07119
-0.292864 	0.0179914 	6.95429e-18 	1.268 	1.0712
-0.291613 	0.0180447 	7.30151e-18 	1.26813 	1.07123
-0.290362 	0.0180979 	7.64873e-18 	1.26834 	1.07128
-0.28911 	0.0181512 	8.34289e-18 	1.2685 	1.07131
-0.287859 	0.0182044 	5.22066e-18 	1.26851 	1.07131
-0.286608 	0.0182577 	3.6371e-19 	1.26841 	1.07129
-0.285357 	0.0183109 	-2.75852e-18 	1.26814 	1.07122
-0.284106 	0.0183642 	-3.79908e-18 	1.26797 	1.07118
-0.282855 	0.0184175 	-4.49269e-18 	1.26793 	1.07117
-0.281604 	0.0184707 	-6.22714e-18 	1.26792 	1.07117
-0.280353 	0.018524 	-1.00433e-17 	1.26792 	1.07117
-0.279101 	0.0185772 	-1.10838e-17 	1.26799 	1.07119
-0.27785 	0.0186305 	-1.35122e-17 	1.26806 	1.0712
-0.276599 	0.0186837 	-1.9063e-17 	1.26807 	1.07121
-0.275348 	0.018737 	-2.3573e-17 	1.26805 	1.0712
-0.274097 	0.0187902 	-2.25319e-17 	1.26793 	1.07117
-0.272846 	0.0188435 	-2.18377e-17 	1.26786 	1.07116
-0.271595 	0.0188967 	-3.01641e-17 	1.26784 	1.07115
-0.270344 	0.01895 	-3.36333e-17 	1.26783 	1.07115
-0.269093 	0.0190033 	-2.98166e-17 	1.26787 	1.07116
-0.267841 	0.0190565 	-2.77347e-17 	1.26803 	1.0712
-0.26659 	0.0191098 	-2.94692e-17 	1.26817 	1.07123
-0.265339 	0.019163 	-2.98158e-17 	1.26824 	1.07125
-0.264088 	0.0192163 	-2.73869e-17 	1.26826 	1.07125
-0.262837 	0.0192695 	-2.59989e-17 	1.26824 	1.07124
-0.261586 	0.0193228 	-2.49578e-17 	1.26807 	1.0712
-0.260335 	0.019376 	-2.49575e-17 	1.2678 	1.07114
-0.259084 	0.0194293 	-2.6345e-17 	1.26766 	1.0711
-0.257832 	0.0194826 	-2.70386e-17 	1.26763 	1.07109
-0.256581 	0.0195358 	-2.66914e-17 	1.26763 	1.07109
-0.25533 	0.0195891 	-2.63442e-17 	1.2677 	1.07111
-0.254079 	0.0196423 	-2.91195e-17 	1.2679 	1.07115
-0.252828 	0.0196956 	-3.22417e-17 	1.26818 	1.07122
-0.251577 	0.0197488 	-3.08536e-17 	1.26829 	1.07125
-0.250326 	0.0198021 	-2.59961e-17 	1.26829 	1.07125
-0.249075 	0.0198553 	-2.00978e-17 	1.26827 	1.07125
-0.247824 	0.0199086 	-1.90567e-17 	1.26826 	1.07125
-0.246572 	0.0199618 	-2.28728e-17 	1.26831 	1.07126
-0.245321 	0.0200151 	-2.49542e-17 	1.26841 	1.07128
-0.24407 	0.0200684 	-2.63417e-17 	1.26844 	1.07129
-0.242819 	0.0201216 	-2.63414e-17 	1.26843 	1.07129
-0.241568 	0.0201749 	-2.53003e-17 	1.26834 	1.07126
-0.240317 	0.0202281 	-2.70348e-17 	1.26809 	1.0712
-0.239066 	0.0202814 	-2.98101e-17 	1.2679 	1.07116
-0.237815 	0.0203346 	-3.08506e-17 	1.26785 	1.07115
-0.236563 	0.0203879 	-3.01565e-17 	1.26784 	1.07115
-0.235312 	0.0204411 	-3.1197e-17 	1.26786 	1.07115
-0.234061 	0.0204944 	-3.25845e-17 	1.26795 	1.07117
-0.23281 	0.0205477 	-3.25842e-17 	1.26819 	1.07123
-0.231559 	0.0206009 	-3.39717e-17 	1.26842 	1.07128
-0.230308 	0.0206542 	-3.39715e-17 	1.2685 	1.0713
-0.229057 	0.0207074 	-3.29304e-17 	1.26851 	1.0713
-0.227806 	0.0207607 	-3.18892e-17 	1.26849 	1.0713
-0.226554 	0.0208139 	-3.1542e-17 	1.26832 	1.07126
-0.225303 	0.0208672 	-3.05009e-17 	1.26805 	1.07119
-0.224052 	0.0209204 	-2.56434e-17 	1.26792 	1.07116
-0.222801 	0.0209737 	-2.35615e-17 	1.2679 	1.07115
-0.22155 	0.0210269 	-2.25204e-17 	1.2679 	1.07115
-0.220299 	0.0210802 	-2.00915e-17 	1.26794 	1.07116
-0.219048 	0.0211335 	-2.04381e-17 	1.268 	1.07118
-0.217797 	0.0211867 	-2.14787e-17 	1.268 	1.07118
-0.216546 	0.02124 	-1.90498e-17 	1.26797 	1.07117
-0.215294 	0.0212932 	-1.6274e-17 	1.26794 	1.07116
-0.214043 	0.0213465 	-1.59268e-17 	1.26793 	1.07116
-0.212792 	0.0213997 	-1.62734e-17 	1.26794 	1.07116
-0.211541 	0.021453 	-1.55793e-17 	1.26806 	1.07119
-0.21029 	0.0215062 	-1.24565e-17 	1.2683 	1.07125
-0.209039 	0.0215595 	-1.21093e-17 	1.26846 	1.07128
-0.207788 	0.0216128 	-1.45376e-17 	1.26849 	1.07129
-0.206537 	0.021666 	-1.59251e-17 	1.26849 	1.07129
-0.205285 	0.0217193 	-1.4884e-17 	1.26841 	1.07127
-0.204034 	0.0217725 	-1.17612e-17 	1.26818 	1.07122
-0.202783 	0.0218258 	-1.17609e-17 	1.26804 	1.07119
-0.201532 	0.021879 	-1.41893e-17 	1.26802 	1.07118
-0.200281 	0.0219323 	-1.24543e-17 	1.26801 	1.07118
-0.19903 	0.0219855 	-1.17601e-17 	1.26804 	1.07119
-0.197779 	0.0220388 	-1.28007e-17 	1.26818 	1.07122
-0.196528 	0.022092 	-1.21065e-17 	1.26828 	1.07124
-0.195277 	0.0221453 	-1.59226e-17 	1.26827 	1.07124
-0.194025 	0.0221986 	-2.04326e-17 	1.26819 	1.07122
-0.192774 	0.0222518 	-2.18201e-17 	1.26811 	1.0712
-0.191523 	0.0223051 	-1.83504e-17 	1.26808 	1.07119
-0.190272 	0.0223583 	-1.59215e-17 	1.26808 	1.07119
-0.189021 	0.0224116 	-1.45335e-17 	1.2681 	1.07119
-0.18777 	0.0224648 	-1.5921e-17 	1.26819 	1.07121
-0.186519 	0.0225181 	-2.25126e-17 	1.26828 	1.07124
-0.185268 	0.0225713 	-2.56349e-17 	1.26831 	1.07125
-0.184016 	0.0226246 	-2.80632e-17 	1.26833 	1.07125
-0.182765 	0.0226779 	-2.80629e-17 	1.26831 	1.07124
-0.181514 	0.0227311 	-2.91035e-17 	1.26816 	1.07121
-0.180263 	0.0227844 	-3.0491e-17 	1.26797 	1.07117
-0.179012 	0.0228376 	-2.97968e-17 	1.26791 	1.07115
-0.177761 	0.0228909 	-3.08374e-17 	1.2679 	1.07115
-0.17651 	0.0229441 	-3.08371e-17 	1.2679 	1.07115
-0.175259 	0.0229974 	-3.01429e-17 	1.268 	1.07117
-0.174008 	0.0230506 	-2.52854e-17 	1.26824 	1.07123
-0.172756 	0.0231039 	-1.93871e-17 	1.26841 	1.07127
-0.171505 	0.0231571 	-1.59174e-17 	1.26845 	1.07127
-0.170254 	0.0232104 	-1.31415e-17 	1.26845 	1.07127
-0.169003 	0.0232637 	-1.24474e-17 	1.26838 	1.07125
-0.167752 	0.0233169 	-1.21002e-17 	1.26815 	1.0712
-0.166501 	0.0233702 	-1.41816e-17 	1.26796 	1.07116
-0.16525 	0.0234234 	-1.38343e-17 	1.26793 	1.07115
-0.163999 	0.0234767 	-1.20993e-17 	1.26793 	1.07115
-0.162747 	0.0235299 	-1.34868e-17 	1.26797 	1.07116
-0.161496 	0.0235832 	-1.38335e-17 	1.2681 	1.07119
-0.160245 	0.0236364 	-1.14046e-17 	1.26833 	1.07124
-0.158994 	0.0236897 	-7.93489e-18 	1.26843 	1.07127
-0.157743 	0.023743 	-1.07102e-17 	1.26843 	1.07127
-0.156492 	0.0237962 	-1.45263e-17 	1.2684 	1.07126
-0.155241 	0.0238495 	-1.38321e-17 	1.26837 	1.07125
-0.15399 	0.0239027 	-1.20971e-17 	1.26836 	1.07125
-0.152739 	0.023956 	-9.66823e-18 	1.26835 	1.07124
-0.151487 	0.0240092 	-9.321e-18 	1.26833 	1.07124
-0.150236 	0.0240625 	-7.586e-18 	1.26832 	1.07124
-0.148985 	0.0241157 	-2.38156e-18 	1.26824 	1.07122
-0.147734 	0.024169 	-6.46556e-19 	1.26803 	1.07117
-0.146483 	0.0242222 	-6.19739e-18 	1.26785 	1.07113
-0.145232 	0.0242755 	-8.97267e-18 	1.26783 	1.07112
-0.143981 	0.0243288 	-8.9724e-18 	1.26783 	1.07113
-0.14273 	0.024382 	-1.27885e-17 	1.26788 	1.07114
-0.141478 	0.0244353 	-1.69516e-17 	1.26801 	1.07117
-0.140227 	0.0244885 	-1.9033e-17 	1.26823 	1.07122
-0.138976 	0.0245418 	-1.97266e-17 	1.26837 	1.07126
-0.137725 	0.024595 	-2.07671e-17 	1.26839 	1.07126
-0.136474 	0.0246483 	-2.14607e-17 	1.26837 	1.07126
-0.135223 	0.0247015 	-1.90319e-17 	1.26827 	1.07123
-0.133972 	0.0247548 	-1.6256e-17 	1.26807 	1.07118
-0.132721 	0.0248081 	-1.52149e-17 	1.26796 	1.07115
-0.13147 	0.0248613 	-1.66024e-17 	1.26794 	1.07114
-0.130218 	0.0249146 	-1.86838e-17 	1.26793 	1.07114
-0.128967 	0.0249678 	-2.14591e-17 	1.26794 	1.07114
-0.127716 	0.0250211 	-2.52752e-17 	1.26796 	1.07115
-0.126465 	0.0250743 	-2.31932e-17 	1.26798 	1.07115
-0.125214 	0.0251276 	-2.00705e-17 	1.268 	1.07116
-0.123963 	0.0251808 	-2.07641e-17 	1.26801 	1.07116
-0.122712 	0.0252341 	-2.21516e-17 	1.268 	1.07116
-0.121461 	0.0252874 	-2.07635e-17 	1.26799 	1.07116
-0.120209 	0.0253406 	-1.90285e-17 	1.268 	1.07116
-0.118958 	0.0253939 	-1.86813e-17 	1.26804 	1.07117
-0.117707 	0.0254471 	-1.69463e-17 	1.26817 	1.0712
-0.116456 	0.0255004 	-1.7293e-17 	1.26832 	1.07124
-0.115205 	0.0255536 	-1.59049e-17 	1.26842 	1.07126
-0.113954 	0.0256069 	-1.3823e-17 	1.26847 	1.07127
-0.112703 	0.0256601 	-1.34757e-17 	1.26848 	1.07128
-0.111452 	0.0257134 	-1.17407e-17 	1.26848 	1.07127
-0.1102 	0.0257666 	-8.9649e-18 	1.26839 	1.07125
-0.108949 	0.0258199 	-8.96463e-18 	1.26812 	1.07119
-0.107698 	0.0258732 	-1.31277e-17 	1.26785 	1.07112
-0.106447 	0.0259264 	-1.45152e-17 	1.26778 	1.0711
-0.105196 	0.0259797 	-1.17393e-17 	1.26777 	1.0711
-0.103945 	0.0260329 	-1.03513e-17 	1.26778 	1.0711
-0.102694 	0.0260862 	-1.00041e-17 	1.26785 	1.07112
-0.101443 	0.0261394 	-8.96296e-18 	1.268 	1.07116
-0.100192 	0.0261927 	-1.10443e-17 	1.26813 	1.07119
-0.0989404 	0.0262459 	-1.31257e-17 	1.26817 	1.0712
-0.0976893 	0.0262992 	-1.20846e-17 	1.26822 	1.07122
-0.0964382 	0.0263525 	-1.06966e-17 	1.26832 	1.07124
-0.0951871 	0.0264057 	-1.2431e-17 	1.26835 	1.07124
-0.093936 	0.026459 	-1.31246e-17 	1.26836 	1.07124
-0.0926848 	0.0265122 	-1.45121e-17 	1.26836 	1.07125
-0.0914337 	0.0265655 	-1.86752e-17 	1.26834 	1.07124
-0.0901826 	0.0266187 	-1.86749e-17 	1.26821 	1.07121
-0.0889315 	0.026672 	-1.83277e-17 	1.26803 	1.07116
-0.0876804 	0.0267252 	-1.97152e-17 	1.26798 	1.07115
-0.0864292 	0.0267785 	-2.04088e-17 	1.26797 	1.07115
-0.0851781 	0.0268317 	-2.00616e-17 	1.26796 	1.07115
-0.083927 	0.026885 	-1.72857e-17 	1.26797 	1.07115
-0.0826759 	0.0269383 	-1.97141e-17 	1.26808 	1.07118
-0.0814248 	0.0269915 	-2.52649e-17 	1.26832 	1.07124
-0.0801737 	0.0270448 	-3.01219e-17 	1.26849 	1.07128
-0.0789225 	0.027098 	-3.11624e-17 	1.26854 	1.07129
-0.0776714 	0.0271513 	-2.87335e-17 	1.26855 	1.07129
-0.0764203 	0.0272045 	-3.0468e-17 	1.26854 	1.07129
-0.0751692 	0.0272578 	-3.08146e-17 	1.26842 	1.07126
-0.0739181 	0.027311 	-2.90796e-17 	1.26821 	1.07121
-0.0726669 	0.0273643 	-3.04671e-17 	1.26813 	1.07119
-0.0714158 	0.0274176 	-3.46302e-17 	1.26811 	1.07118
-0.0701647 	0.0274708 	-3.60177e-17 	1.26811 	1.07118
-0.0689136 	0.0275241 	-3.63643e-17 	1.26815 	1.07119
-0.0676625 	0.0275773 	-3.98335e-17 	1.26818 	1.07119
-0.0664114 	0.0276306 	-4.1568e-17 	1.26817 	1.07119
-0.0651602 	0.0276838 	-4.22616e-17 	1.2681 	1.07117
-0.0639091 	0.0277371 	-4.15674e-17 	1.26802 	1.07115
-0.062658 	0.0277903 	-3.70568e-17 	1.26798 	1.07115
-0.0614069 	0.0278436 	-3.49749e-17 	1.26796 	1.07114
-0.0601558 	0.0278968 	-3.60154e-17 	1.26796 	1.07114
-0.0589046 	0.0279501 	-3.63621e-17 	1.26798 	1.07115
-0.0576535 	0.0280034 	-3.84435e-17 	1.26803 	1.07117
-0.0564024 	0.0280566 	-4.19127e-17 	1.26806 	1.07118
-0.0551513 	0.0281099 	-4.15654e-17 	1.26809 	1.07118
-0.0539002 	0.0281631 	-3.98304e-17 	1.26812 	1.07119
-0.0526491 	0.0282164 	-4.01771e-17 	1.26815 	1.0712
-0.0513979 	0.0282696 	-3.8789e-17 	1.26815 	1.0712
-0.0501468 	0.0283229 	-3.67071e-17 	1.26814 	1.07119
-0.0488957 	0.0283761 	-3.74007e-17 	1.26812 	1.07119
-0.0476446 	0.0284294 	-3.84413e-17 	1.2681 	1.07118
-0.0463935 	0.0284827 	-3.94818e-17 	1.26808 	1.07118
-0.0451423 	0.0285359 	-4.08693e-17 	1.26807 	1.07117
-0.0438912 	0.0285892 	-4.29507e-17 	1.26809 	1.07118
-0.0426401 	0.0286424 	-4.46852e-17 	1.26816 	1.07119
-0.041389 	0.0286957 	-4.53788e-17 	1.26819 	1.0712
-0.0401379 	0.0287489 	-4.36438e-17 	1.26819 	1.0712
-0.0388868 	0.0288022 	-4.15618e-17 	1.26821 	1.0712
-0.0376356 	0.0288554 	-4.32963e-17 	1.26825 	1.07121
-0.0363845 	0.0289087 	-4.26021e-17 	1.26827 	1.07121
-0.0351334 	0.0289619 	-4.1561e-17 	1.26827 	1.07121
-0.0338823 	0.0290152 	-4.19076e-17 	1.26826 	1.07121
-0.0326312 	0.0290685 	-4.22543e-17 	1.2682 	1.07119
-0.03138 	0.0291217 	-4.43357e-17 	1.26819 	1.07119
-0.0301289 	0.029175 	-4.32946e-17 	1.26818 	1.07119
-0.0288778 	0.0292282 	-4.22535e-17 	1.26816 	1.07118
-0.0276267 	0.0292815 	-4.39879e-17 	1.26813 	1.07118
-0.0263756 	0.0293347 	-4.57223e-17 	1.26813 	1.07117
-0.0251244 	0.029388 	-4.53751e-17 	1.26813 	1.07117
-0.0238733 	0.0294412 	-4.50279e-17 	1.26816 	1.07118
-0.0226222 	0.0294945 	-4.50276e-17 	1.2682 	1.0712
-0.0213711 	0.0295478 	-4.29457e-17 	1.26822 	1.0712
-0.02012 	0.029601 	-4.39862e-17 	1.26822 	1.0712
-0.0188689 	0.0296543 	-4.60676e-17 	1.26821 	1.0712
-0.0176177 	0.0297075 	-4.50265e-17 	1.26813 	1.07118
-0.0163666 	0.0297608 	-4.39854e-17 	1.268 	1.07115
-0.0151155 	0.029814 	-4.4679e-17 	1.26792 	1.07114
-0.0138644 	0.0298673 	-4.64134e-17 	1.2679 	1.07113
-0.0126133 	0.0299205 	-4.84948e-17 	1.26789 	1.07113
-0.0113621 	0.0299738 	-4.98823e-17 	1.2679 	1.07113
-0.010111 	0.030027 	-5.19637e-17 	1.26797 	1.07114
-0.00885991 	0.0300803 	-4.88409e-17 	1.26815 	1.07119
-0.00760879 	0.0301336 	-4.32895e-17 	1.26833 	1.07123
-0.00635767 	0.0301868 	-4.57179e-17 	1.26835 	1.07123
-0.00510656 	0.0302401 	-5.02279e-17 	1.26834 	1.07123
-0.00385544 	0.0302933 	-5.16154e-17 	1.26831 	1.07122
-0.00260432 	0.0303466 	-5.1962e-17 	1.26824 	1.0712
-0.0013532 	0.0303998 	-5.43904e-17 	1.2682 	1.07119
-0.000102083 	0.0304531 	-5.43901e-17 	1.2682 	1.07119
