-0.999134 	1e-05 	7.18136e-18 	1 	1
-0.997402 	1e-05 	6.83442e-18 	1 	1
-0.995674 	1e-05 	6.48747e-18 	1 	1
-0.993948 	1e-05 	6.48747e-18 	1 	1
-0.992226 	1e-05 	6.48747e-18 	1 	1
-0.990506 	1e-05 	6.48747e-18 	1 	1
-0.98879 	1e-05 	6.48747e-18 	1 	1
-0.987076 	1e-05 	6.48747e-18 	1 	1
-0.985366 	1e-05 	6.48747e-18 	1 	1
-0.983658 	1e-05 	6.48747e-18 	1 	1
-0.981954 	1e-05 	6.48747e-18 	1 	1
-0.980252 	1e-05 	6.48747e-18 	1 	1
-0.978553 	1e-05 	6.48747e-18 	1 	1
-0.976858 	1e-05 	6.48747e-18 	1 	1
-0.975165 	1e-05 	4.75275e-18 	1 	1
-0.973475 	1e-05 	3.01803e-18 	1 	1
-0.971788 	1e-05 	3.01803e-18 	1 	1
-0.970104 	1e-05 	3.01803e-18 	1 	1
-0.968423 	1e-05 	3.01803e-18 	1 	1
-0.966745 	1e-05 	-2.09941e-18 	1 	1
-0.96507 	1e-05 	-7.56379e-18 	1 	1
-0.963397 	1e-05 	-7.91073e-18 	1 	1
-0.961728 	1e-05 	-7.91073e-18 	1 	1
-0.960061 	1e-05 	-7.91073e-18 	1 	1
-0.958398 	1e-05 	-8.25768e-18 	1 	1
-0.956737 	1e-05 	-8.95157e-18 	1 	1
-0.955079 	1e-05 	-9.29851e-18 	1 	1
-0.953424 	1e-05 	-9.29851e-18 	1 	1
-0.951772 	1e-05 	-9.29851e-18 	1 	1
-0.950123 	1e-05 	-9.29851e-18 	1 	1
-0.948476 	1e-05 	-9.29851e-18 	1 	1
-0.946833 	1e-05 	-9.29851e-18 	1 	1
-0.945192 	1e-05 	-9.29851e-18 	1 	1
-0.943554 	1e-05 	-9.29851e-18 	1 	1
-0.941919 	1e-05 	-9.29851e-18 	1 	1
-0.940287 	1e-05 	-9.29851e-18 	1 	1
-0.938658 	1e-05 	-9.29851e-18 	1 	1
-0.937031 	1e-05 	-9.29851e-18 	1 	1
-0.935408 	1e-05 	-9.29851e-18 	1 	1
-0.933787 	1e-05 	-9.29851e-18 	1 	1
-0.932169 	1e-05 	-9.29851e-18 	1 	1
-0.930553 	1e-05 	-9.29851e-18 	1 	1
-0.928941 	1e-05 	-9.29851e-18 	1 	1
-0.927331 	1e-05 	-9.29851e-18 	1 	1
-0.925725 	1e-05 	-9.29851e-18 	1 	1
-0.924121 	1e-05 	-9.29851e-18 	1 	1
-0.922519 	1e-05 	-9.29851e-18 	1 	1
-0.920921 	1e-05 	-9.29851e-18 	1 	1
-0.919325 	1e-05 	-9.29851e-18 	1 	1
-0.917732 	1e-05 	-9.29851e-18 	1 	1
-0.916142 	1e-05 	-8.95157e-18 	1 	1
-0.914555 	1e-05 	-8.60462e-18 	1 	1
-0.91297 	1e-05 	-8.60462e-18 	1 	1
-0.911388 	1e-05 	-8.60462e-18 	1 	1
-0.909809 	1e-05 	-8.60462e-18 	1 	1
-0.908233 	1e-05 	-8.60462e-18 	1 	1
-0.906659 	1e-05 	-8.60462e-18 	1 	1
-0.905088 	1e-05 	-8.60462e-18 	1 	1
-0.90352 	1e-05 	-8.60462e-18 	1 	1
-0.901954 	1e-05 	-8.60462e-18 	1 	1
-0.900391 	1e-05 	-8.60462e-18 	1 	1
-0.898831 	1e-05 	-8.60462e-18 	1 	1
-0.897274 	1e-05 	-8.60462e-18 	1 	1
-0.895719 	1e-05 	-8.60462e-18 	1 	1
-0.894167 	1e-05 	-8.60462e-18 	1 	1
-0.892618 	1e-05 	-8.60462e-18 	1 	1
-0.891072 	1e-05 	-8.60462e-18 	1 	1
-0.889528 	1e-05 	-8.60462e-18 	1 	1
-0.887986 	1e-05 	-8.60462e-18 	1 	1
-0.886448 	1e-05 	-8.60462e-18 	1 	1
-0.884912 	1e-05 	-8.60462e-18 	1 	1
-0.883379 	1e-05 	-8.60462e-18 	1 	1
-0.881848 	1e-05 	-8.60462e-18 	1 	1
-0.88032 	1e-05 	-8.60462e-18 	1 	1
-0.878795 	1e-05 	-8.60462e-18 	1 	1
-0.877273 	1e-05 	-8.60462e-18 	1 	1
-0.875753 	1e-05 	-8.60462e-18 	1 	1
-0.874235 	1e-05 	-8.95157e-18 	1 	1
-0.872721 	1e-05 	-9.29851e-18 	1 	1
-0.871209 	1e-05 	-9.29851e-18 	1 	1
-0.869699 	1e-05 	-9.29851e-18 	1 	1
-0.868192 	1e-05 	-9.29851e-18 	1 	1
-0.866688 	1e-05 	-9.29851e-18 	1 	1
-0.865187 	1e-05 	-9.29851e-18 	1 	1
-0.863688 	1e-05 	-9.29851e-18 	1 	1
-0.862191 	1e-05 	-9.29851e-18 	1 	1
-0.860698 	1e-05 	-9.29851e-18 	1 	1
-0.859206 	1e-05 	-9.29851e-18 	1 	1
-0.857718 	1e-05 	-9.29851e-18 	1 	1
-0.856232 	1e-05 	-9.29851e-18 	1 	1
-0.854748 	1e-05 	-9.29851e-18 	1 	1
-0.853268 	1e-05 	-9.29851e-18 	1 	1
-0.851789 	1e-05 	-9.29851e-18 	1 	1
-0.850314 	1e-05 	-9.29851e-18 	1 	1
-0.84884 	1e-05 	-9.29851e-18 	1 	1
-0.84737 	1e-05 	-9.29851e-18 	1 	1
-0.845902 	1e-05 	-9.29851e-18 	1 	1
-0.844436 	1e-05 	-9.29851e-18 	1 	1
-0.842973 	1e-05 	-9.29851e-18 	1 	1
-0.841513 	1e-05 	-8.95157e-18 	1 	1
-0.840055 	1e-05 	-8.60462e-18 	1 	1
-0.8386 	1e-05 	-8.60462e-18 	1 	1
-0.837147 	1e-05 	-8.60462e-18 	1 	1
-0.835697 	1e-05 	-8.60462e-18 	1 	1
-0.834249 	1e-05 	-8.60462e-18 	1 	1
-0.832804 	1e-05 	-8.60462e-18 	1 	1
-0.831361 	1e-05 	-8.60462e-18 	1 	1
-0.829921 	1e-05 	-8.60462e-18 	1 	1
-0.828483 	1e-05 	-8.60462e-18 	1 	1
-0.827048 	1e-05 	-8.60462e-18 	1 	1
-0.825615 	1e-05 	-8.60462e-18 	1 	1
-0.824184 	1e-05 	-8.51788e-18 	1 	1
-0.822757 	1e-05 	-8.43115e-18 	1 	1
-0.821331 	1e-05 	-8.43115e-18 	1 	1
-0.819909 	1e-05 	-8.43115e-18 	1 	1
-0.818488 	1e-05 	-8.43115e-18 	1 	1
-0.81707 	1e-05 	-8.43115e-18 	1 	1
-0.815655 	1e-05 	-8.43115e-18 	1 	1
-0.814242 	1e-05 	-8.43115e-18 	1 	1
-0.812831 	1e-05 	-8.43115e-18 	1 	1
-0.811423 	1e-05 	-8.43115e-18 	1 	1
-0.810018 	1e-05 	-8.43115e-18 	1 	1
-0.808614 	1e-05 	-8.43115e-18 	1 	1
-0.807214 	1e-05 	-8.43115e-18 	1 	1
-0.805815 	1e-05 	-8.0842e-18 	1 	1
-0.804419 	1e-05 	-7.73726e-18 	1 	1
-0.803026 	1e-05 	-7.73726e-18 	1 	1
-0.801635 	1e-05 	-7.73726e-18 	1 	1
-0.800246 	1e-05 	-7.73726e-18 	1 	1
-0.79886 	1e-05 	-7.73726e-18 	1 	1
-0.797476 	1e-05 	-7.73726e-18 	1 	1
-0.796095 	1e-05 	-7.73726e-18 	1 	1
-0.794716 	1e-05 	-7.73726e-18 	1 	1
-0.793339 	1e-05 	-7.73726e-18 	1 	1
-0.791965 	1e-05 	-7.73726e-18 	1 	1
-0.790593 	1e-05 	-7.73726e-18 	1 	1
-0.789223 	1e-05 	-7.73726e-18 	1 	1
-0.787856 	1e-05 	-7.73726e-18 	1 	1
-0.786491 	1e-05 	-7.73726e-18 	1 	1
-0.785129 	1e-05 	-7.73726e-18 	1 	1
-0.783769 	1e-05 	-7.73726e-18 	1 	1
-0.782411 	1e-05 	-7.73726e-18 	1 	1
-0.781056 	1e-05 	-7.73726e-18 	1 	1
-0.779703 	1e-05 	-7.73726e-18 	1 	1
-0.778353 	1e-05 	-7.73726e-18 	1 	1
-0.777004 	1e-05 	-7.73726e-18 	1 	1
-0.775658 	1e-05 	-7.73726e-18 	1 	1
-0.774315 	1e-05 	-5.9158e-18 	1 	1
-0.772974 	1e-05 	-4.09434e-18 	1 	1
-0.771635 	1e-05 	-4.09434e-18 	1 	1
-0.770298 	1e-05 	-4.09434e-18 	1 	1
-0.768964 	1e-05 	-4.09434e-18 	1 	1
-0.767632 	1e-05 	-4.09434e-18 	1 	1
-0.766302 	1e-05 	-4.09434e-18 	1 	1
-0.764975 	1e-05 	-4.09434e-18 	1 	1
-0.76365 	1e-05 	-4.09434e-18 	1 	1
-0.762327 	1e-05 	-4.09434e-18 	1 	1
-0.761007 	1e-05 	-4.09434e-18 	1 	1
-0.759689 	1e-05 	-4.09434e-18 	1 	1
-0.758373 	1e-05 	-4.09434e-18 	1 	1
-0.757059 	1e-05 	-4.09434e-18 	1 	1
-0.755748 	1e-05 	-4.09434e-18 	1 	1
-0.754439 	1e-05 	-4.09434e-18 	1 	1
-0.753132 	1e-05 	-4.09434e-18 	1 	1
-0.751828 	1e-05 	-4.09434e-18 	1 	1
-0.750525 	1e-05 	-4.09434e-18 	1 	1
-0.749226 	1e-05 	-4.09434e-18 	1 	1
-0.747928 	1e-05 	-4.09434e-18 	1 	1
-0.746632 	1e-05 	-4.09434e-18 	1 	1
-0.745339 	1e-05 	-4.09434e-18 	1 	1
-0.744048 	1e-05 	-4.09434e-18 	1 	1
-0.74276 	1e-05 	-3.7474e-18 	1 	1
-0.741473 	1e-05 	-3.40045e-18 	1 	1
-0.740189 	1e-05 	-3.40045e-18 	1 	1
-0.738907 	1e-05 	-3.40045e-18 	1 	1
-0.737627 	1e-05 	-3.40045e-18 	1 	1
-0.73635 	1e-05 	-3.40045e-18 	1 	1
-0.735074 	1e-05 	-3.40045e-18 	1 	1
-0.733801 	1e-05 	-3.40045e-18 	1 	1
-0.73253 	1e-05 	-3.40045e-18 	1 	1
-0.731261 	1e-05 	-3.40045e-18 	1 	1
-0.729995 	1e-05 	-3.40045e-18 	1 	1
-0.728731 	1e-05 	-3.40045e-18 	1 	1
-0.727469 	1e-05 	-3.40045e-18 	1 	1
-0.726209 	1e-05 	-3.40045e-18 	1 	1
-0.724951 	1e-05 	-3.40045e-18 	1 	1
-0.723695 	1e-05 	-3.40045e-18 	1 	1
-0.722442 	1e-05 	-3.7474e-18 	1 	1
-0.721191 	1e-05 	-4.09434e-18 	1 	1
-0.719942 	1e-05 	-4.09434e-18 	1 	1
-0.718695 	1e-05 	-4.09434e-18 	1 	1
-0.71745 	1e-05 	-4.09434e-18 	1 	1
-0.716208 	1e-05 	-4.09434e-18 	1 	1
-0.714967 	1e-05 	-4.09434e-18 	1 	1
-0.713729 	1e-05 	-5.82906e-18 	1 	1
-0.712493 	1e-05 	-7.56379e-18 	1 	1
-0.711259 	1e-05 	-7.56379e-18 	1 	1
-0.710027 	1e-05 	-7.56379e-18 	1 	1
-0.708798 	1e-05 	-7.56379e-18 	1 	1
-0.70757 	1e-05 	-7.56379e-18 	1 	1
-0.706345 	1e-05 	-7.56379e-18 	1 	1
-0.705121 	1e-05 	-7.56379e-18 	1 	1
-0.7039 	1e-05 	-7.56379e-18 	1 	1
-0.702681 	1e-05 	-7.21684e-18 	1 	1
-0.701464 	1e-05 	-6.8699e-18 	1 	1
-0.70025 	1e-05 	-6.52295e-18 	1 	1
-0.699037 	1e-05 	-4.44128e-18 	1 	1
-0.697826 	1e-05 	-2.70656e-18 	1 	1
-0.696618 	1e-05 	-2.70656e-18 	1 	1
-0.695411 	1e-05 	-2.70656e-18 	1 	1
-0.694207 	1e-05 	-2.70656e-18 	1 	1
-0.693005 	1e-05 	-2.70656e-18 	1 	1
-0.691805 	1e-05 	-2.70656e-18 	1 	1
-0.690607 	1e-05 	-2.70656e-18 	1 	1
-0.689411 	1e-05 	-2.70656e-18 	1 	1
-0.688217 	1e-05 	-2.70656e-18 	1 	1
-0.687025 	1e-05 	-2.70656e-18 	1 	1
-0.685835 	1e-05 	-2.70656e-18 	1 	1
-0.684648 	1e-05 	-2.70656e-18 	1 	1
-0.683462 	1e-05 	-2.70656e-18 	1 	1
-0.682279 	1e-05 	-2.70656e-18 	1 	1
-0.681097 	1e-05 	-2.70656e-18 	1 	1
-0.679918 	1e-05 	-2.70656e-18 	1 	1
-0.67874 	1e-05 	-2.70656e-18 	1 	1
-0.677565 	1e-05 	-2.70656e-18 	1 	1
-0.676392 	1e-05 	-2.70656e-18 	1 	1
-0.67522 	1e-05 	-2.70656e-18 	1 	1
-0.674051 	1e-05 	-2.70656e-18 	1 	1
-0.672884 	1e-05 	-2.70656e-18 	1 	1
-0.671719 	1e-05 	-2.70656e-18 	1 	1
-0.670556 	1e-05 	-2.70656e-18 	1 	1
-0.669394 	1e-05 	-2.70656e-18 	1 	1
-0.668235 	1e-05 	-2.70656e-18 	1 	1
-0.667078 	1e-05 	-2.70656e-18 	1 	1
-0.665923 	1e-05 	-2.70656e-18 	1 	1
-0.66477 	1e-05 	-2.70656e-18 	1 	1
-0.663619 	1e-05 	-2.70656e-18 	1 	1
-0.66247 	1e-05 	-2.70656e-18 	1 	1
-0.661323 	1e-05 	-2.70656e-18 	1 	1
-0.660178 	1e-05 	-2.70656e-18 	1 	1
-0.659034 	1e-05 	-3.05351e-18 	1 	1
-0.657893 	1e-05 	-3.40045e-18 	1 	1
-0.656754 	1e-05 	-3.40045e-18 	1 	1
-0.655617 	1e-05 	-3.40045e-18 	1 	1
-0.654482 	1e-05 	-3.40045e-18 	1 	1
-0.653349 	1e-05 	-3.40045e-18 	1 	1
-0.652217 	1e-05 	-3.40045e-18 	1 	1
-0.651088 	1e-05 	-3.40045e-18 	1 	1
-0.649961 	1e-05 	-3.7474e-18 	1 	1
-0.648835 	1e-05 	-4.09434e-18 	1 	1
-0.647712 	1e-05 	-4.09434e-18 	1 	1
-0.64659 	1e-05 	-4.09434e-18 	1 	1
-0.645471 	1e-05 	-4.09434e-18 	1 	1
-0.644353 	1e-05 	-4.09434e-18 	1 	1
-0.643237 	1e-05 	-4.09434e-18 	1 	1
-0.642124 	1e-05 	-4.09434e-18 	1 	1
-0.641012 	1e-05 	-4.09434e-18 	1 	1
-0.639902 	1e-05 	-4.09434e-18 	1 	1
-0.638794 	1e-05 	-4.09434e-18 	1 	1
-0.637688 	1e-05 	-4.09434e-18 	1 	1
-0.636584 	1e-05 	-4.09434e-18 	1 	1
-0.635482 	1e-05 	-4.09434e-18 	1 	1
-0.634382 	1e-05 	-4.09434e-18 	1 	1
-0.633283 	1e-05 	-4.09434e-18 	1 	1
-0.632187 	1e-05 	-4.09434e-18 	1 	1
-0.631092 	1e-05 	-4.09434e-18 	1 	1
-0.63 	1e-05 	-4.09434e-18 	1 	1
-0.628909 	1e-05 	-4.09434e-18 	1 	1
-0.62782 	1e-05 	-4.09434e-18 	1 	1
-0.626733 	1e-05 	-4.09434e-18 	1 	1
-0.625648 	1e-05 	-4.09434e-18 	1 	1
-0.624565 	1e-05 	-4.09434e-18 	1 	1
-0.623483 	1e-05 	-4.09434e-18 	1 	1
-0.622404 	1e-05 	-4.09434e-18 	1 	1
-0.621326 	1e-05 	-3.7474e-18 	1 	1
-0.620251 	1e-05 	-3.40045e-18 	1 	1
-0.619177 	1e-05 	-3.40045e-18 	1 	1
-0.618105 	1e-05 	-3.40045e-18 	1 	1
-0.617035 	1e-05 	-3.40045e-18 	1 	1
-0.615967 	1e-05 	-3.40045e-18 	1 	1
-0.6149 	1e-05 	-3.40045e-18 	1 	1
-0.613836 	1e-05 	-3.40045e-18 	1 	1
-0.612773 	1e-05 	-3.40045e-18 	1 	1
-0.611712 	1e-05 	-3.7474e-18 	1 	1
-0.610653 	1e-05 	-4.09434e-18 	1 	1
-0.609596 	1e-05 	-4.09434e-18 	1 	1
-0.608541 	1e-05 	-4.09434e-18 	1 	1
-0.607487 	1e-05 	-4.09434e-18 	1 	1
-0.606435 	1e-05 	-4.09434e-18 	1 	1
-0.605386 	1e-05 	-4.09434e-18 	1 	1
-0.604338 	1e-05 	-4.09434e-18 	1 	1
-0.603291 	1e-05 	-4.09434e-18 	1 	1
-0.602247 	1e-05 	-4.09434e-18 	1 	1
-0.601204 	1e-05 	-4.09434e-18 	1 	1
-0.600164 	1e-05 	-4.09434e-18 	1 	1
-0.599125 	1e-05 	-4.09434e-18 	1 	1
-0.598087 	1e-05 	-4.09434e-18 	1 	1
-0.597052 	1e-05 	-5.39538e-18 	1 	1
-0.596019 	1e-05 	-6.69643e-18 	1 	1
-0.594987 	1e-05 	-6.69643e-18 	1 	1
-0.593957 	1e-05 	-6.69643e-18 	1 	1
-0.592929 	1e-05 	-9.73219e-18 	1 	1
-0.591902 	1e-05 	-1.14669e-17 	1 	1
-0.590878 	1e-05 	-1.19006e-17 	1 	1
-0.589855 	1e-05 	-1.36353e-17 	1 	1
-0.588834 	1e-05 	-1.19006e-17 	1 	1
-0.587814 	1e-05 	-1.22475e-17 	1 	1
-0.586797 	1e-05 	-1.43292e-17 	1 	1
-0.585781 	1e-05 	-1.30282e-17 	1 	1
-0.584767 	1e-05 	-8.69136e-18 	1 	1
-0.583755 	1e-05 	-4.35455e-18 	1 	1
-0.582744 	1e-05 	-4.78823e-18 	1 	1
-0.581736 	1e-05 	-7.824e-18 	1 	1
-0.580729 	1e-05 	-7.39031e-18 	1 	1
-0.579723 	1e-05 	-5.65559e-18 	1 	1
-0.57872 	1e-05 	-7.39031e-18 	1 	1
-0.577718 	1e-05 	-7.824e-18 	1 	1
-0.576718 	1e-05 	-4.78823e-18 	1 	1
-0.57572 	1e-05 	-3.05351e-18 	1 	1
-0.574723 	1e-05 	-3.40045e-18 	1 	1
-0.573729 	1e-05 	-5.48212e-18 	1 	1
-0.572736 	1e-05 	-7.21684e-18 	1 	1
-0.571744 	1e-05 	-7.21684e-18 	1 	1
-0.570755 	1e-05 	-3.7474e-18 	1 	1
-0.569767 	1e-05 	-1.57899e-18 	1 	1
-0.56878 	1e-05 	-2.88003e-18 	1 	1
-0.567796 	1e-05 	-4.18108e-18 	1 	1
-0.566813 	1e-05 	-4.18108e-18 	1 	1
-0.565832 	1e-05 	-1.14531e-18 	1 	1
-0.564853 	1e-05 	5.89413e-19 	1 	1
-0.563875 	1e-05 	4.05886e-18 	1 	1
-0.562899 	1e-05 	7.52831e-18 	1 	1
-0.561925 	1e-05 	7.52831e-18 	1 	1
-0.560952 	1e-05 	7.52831e-18 	1 	1
-0.559981 	1e-05 	5.79358e-18 	1 	1
-0.559012 	1e-05 	5.79358e-18 	1 	1
-0.558045 	1e-05 	7.96199e-18 	1 	1
-0.557079 	1e-05 	8.39567e-18 	1 	1
-0.556114 	1e-05 	8.39567e-18 	1 	1
-0.555152 	1e-05 	9.69671e-18 	1 	1
-0.554191 	1e-05 	9.69671e-18 	1 	1
-0.553232 	1e-05 	7.09463e-18 	1 	1
-0.552274 	1e-05 	7.09463e-18 	1 	1
-0.551319 	1e-05 	1.31662e-17 	1 	1
-0.550364 	1e-05 	1.92377e-17 	1 	1
-0.549412 	1e-05 	2.05387e-17 	1 	1
-0.548461 	1e-05 	2.05387e-17 	1 	1
-0.547512 	1e-05 	2.01918e-17 	1 	1
-0.546564 	1e-05 	1.98448e-17 	1 	1
-0.545618 	1e-05 	1.98448e-17 	1 	1
-0.544674 	1e-05 	1.98448e-17 	1 	1
-0.543731 	1e-05 	1.98448e-17 	1 	1
-0.54279 	1e-05 	1.98448e-17 	1 	1
-0.541851 	1e-05 	1.94112e-17 	1 	1
-0.540913 	1e-05 	2.02785e-17 	1 	1
-0.539977 	1e-05 	2.02785e-17 	1 	1
-0.539043 	1e-05 	2.02785e-17 	1 	1
-0.53811 	1e-05 	2.15796e-17 	1 	1
-0.537179 	1e-05 	2.20132e-17 	1 	1
-0.536249 	1e-05 	1.94112e-17 	1 	1
-0.535321 	1e-05 	1.63754e-17 	1 	1
-0.534394 	1e-05 	1.63754e-17 	1 	1
-0.53347 	1e-05 	1.76764e-17 	1 	1
-0.532546 	1e-05 	1.76764e-17 	1 	1
-0.531625 	1e-05 	1.94112e-17 	1 	1
-0.530705 	1e-05 	2.07122e-17 	1 	1
-0.529786 	1e-05 	1.89775e-17 	1 	1
-0.52887 	1e-05 	1.87173e-17 	1 	1
-0.527954 	1e-05 	1.84571e-17 	1 	1
-0.527041 	1e-05 	1.84571e-17 	1 	1
-0.526129 	1e-05 	1.54213e-17 	1 	1
-0.525218 	1e-05 	1.36866e-17 	1 	1
-0.524309 	1e-05 	1.53346e-17 	1 	1
-0.523402 	1e-05 	1.61152e-17 	1 	1
-0.522496 	1e-05 	1.65489e-17 	1 	1
-0.521592 	1e-05 	1.48141e-17 	1 	1
-0.52069 	1e-05 	1.13447e-17 	1 	1
-0.519789 	1e-05 	1.0911e-17 	1 	1
-0.518889 	1e-05 	1.22121e-17 	1 	1
-0.517991 	1e-05 	1.57682e-17 	1 	1
-0.517095 	1e-05 	1.88907e-17 	1 	1
-0.5162 	1e-05 	1.84571e-17 	1 	1
-0.515307 	1e-05 	1.88907e-17 	1 	1
-0.514415 	1e-05 	1.93244e-17 	1 	1
-0.513525 	1e-05 	2.10592e-17 	1 	1
-0.512637 	1e-05 	2.27939e-17 	1 	1
-0.511749 	1e-05 	2.27939e-17 	1 	1
-0.510864 	1e-05 	2.27939e-17 	1 	1
-0.50998 	1e-05 	2.27939e-17 	1 	1
-0.509098 	1e-05 	2.27939e-17 	1 	1
-0.508217 	1e-05 	2.23602e-17 	1 	1
-0.507337 	1e-05 	2.19265e-17 	1 	1
-0.506459 	1e-05 	1.98448e-17 	1 	1
-0.505583 	1e-05 	1.94979e-17 	1 	1
-0.504708 	1e-05 	2.12326e-17 	1 	1
-0.503835 	1e-05 	2.12326e-17 	1 	1
-0.502963 	1e-05 	2.08857e-17 	1 	1
-0.502093 	1e-05 	1.8804e-17 	1 	1
-0.501224 	1e-05 	1.57682e-17 	1 	1
-0.500357 	1e-05 	1.27325e-17 	1 	1
-0.4993 	1e-05 	1.23177e-17 	1 	1
-0.498051 	1e-05 	1.40902e-17 	1 	1
-0.496803 	1e-05 	1.39545e-17 	1 	1
-0.495554 	1e-05 	1.41659e-17 	1 	1
-0.494306 	1e-05 	1.88875e-17 	1 	1
-0.493057 	1e-05 	2.24023e-17 	1 	1
-0.491809 	1e-05 	2.07183e-17 	1 	1
-0.49056 	1e-05 	1.88155e-17 	1 	1
-0.489312 	1e-05 	1.65223e-17 	1 	1
-0.488063 	1e-05 	1.70046e-17 	1 	1
-0.486815 	1e-05 	1.76603e-17 	1 	1
-0.485579 	1e-05 	1.53692e-17 	1 	1
-0.484955 	1e-05 	1.46715e-17 	1.00003 	1.00001
-0.484318 	1e-05 	1.33484e-17 	1.00011 	1.00003
-0.483069 	1e-05 	1.38095e-17 	1.00034 	1.0001
-0.481821 	1e-05 	1.56259e-17 	1.00096 	1.00028
-0.480572 	1e-05 	1.86133e-17 	1.00261 	1.00076
-0.479324 	1e-05 	2.14273e-17 	1.00634 	1.00185
-0.478075 	1e-05 	1.99045e-17 	1.01386 	1.00406
-0.476827 	1e-05 	2.05589e-17 	1.02936 	1.00862
-0.475578 	1e-05 	2.2541e-17 	1.05328 	1.01555
-0.47433 	1e-05 	2.03991e-17 	1.09009 	1.02605
-0.473081 	1e-05 	1.94931e-17 	1.1472 	1.04191
-0.471833 	1e-05 	1.96279e-17 	1.19759 	1.05512
-0.470584 	1e-05 	1.55994e-17 	1.2573 	1.07011
-0.469336 	1e-05 	1.12239e-17 	1.32864 	1.08762
-0.468666 	1e-05 	7.5391e-18 	1.38577 	1.1012
-0.468041 	1e-05 	5.37457e-18 	1.54708 	1.13674
-0.466839 	1e-05 	4.29275e-18 	1.56431 	1.14056
-0.46559 	1e-05 	-1.04605e-18 	1.56572 	1.14077
-0.464342 	1e-05 	-4.12966e-18 	1.56593 	1.14067
-0.463093 	1e-05 	-4.78463e-18 	1.56721 	1.14081
-0.461845 	1e-05 	-7.86816e-18 	1.56617 	1.1406
-0.460596 	1e-05 	-1.21409e-17 	1.56193 	1.13976
-0.459348 	1e-05 	-1.27447e-17 	1.5542 	1.13821
-0.458099 	1e-05 	-1.16779e-17 	1.54777 	1.13686
-0.456851 	1e-05 	-1.1717e-17 	1.54255 	1.13569
-0.455602 	1e-05 	-1.26235e-17 	1.53842 	1.13468
-0.454354 	1e-05 	-1.4571e-17 	1.53904 	1.13479
-0.453105 	1e-05 	-1.54776e-17 	1.53964 	1.13497
-0.452397 	1e-05 	-1.61315e-17 	1.53915 	1.13491
-0.451773 	1e-05 	-1.4319e-17 	1.52404 	1.13167
-0.450608 	1e-05 	-1.23729e-17 	1.52468 	1.13183
-0.44936 	1e-05 	-1.05988e-17 	1.52609 	1.13216
-0.448111 	1e-05 	-1.00389e-17 	1.52754 	1.13247
-0.446863 	1e-05 	-9.65251e-18 	1.52818 	1.13259
-0.445614 	1e-05 	-9.95996e-18 	1.52725 	1.13238
-0.444366 	1e-05 	-1.06666e-17 	1.5243 	1.13177
-0.443117 	1e-05 	-1.22152e-17 	1.52242 	1.13141
-0.441869 	1e-05 	-1.33173e-17 	1.52236 	1.1314
-0.44062 	1e-05 	-1.56989e-17 	1.52375 	1.13171
-0.439372 	1e-05 	-2.14632e-17 	1.52667 	1.13231
-0.438123 	1e-05 	-2.1156e-17 	1.52815 	1.13261
-0.436875 	1e-05 	-1.54712e-17 	1.52856 	1.13271
-0.436149 	1e-05 	-1.16576e-17 	1.52859 	1.13272
-0.435524 	1e-05 	-1.19326e-17 	1.53229 	1.13358
-0.434378 	1e-05 	-1.25517e-17 	1.53074 	1.13326
-0.433129 	1e-05 	-1.38995e-17 	1.52809 	1.1327
-0.431881 	1e-05 	-1.438e-17 	1.52657 	1.13238
-0.430632 	1e-05 	-1.36461e-17 	1.52648 	1.13236
-0.429384 	1e-05 	-1.34326e-17 	1.52684 	1.13244
-0.428135 	1e-05 	-1.10789e-17 	1.52788 	1.13266
-0.426887 	1e-05 	-1.23649e-17 	1.52951 	1.13302
-0.425638 	1e-05 	-1.53107e-17 	1.53059 	1.13325
-0.42439 	1e-05 	-1.62182e-17 	1.53085 	1.13331
-0.423141 	1e-05 	-1.55646e-17 	1.53095 	1.13333
-0.421893 	1e-05 	-1.17885e-17 	1.5305 	1.13322
-0.420644 	1e-05 	-1.09614e-17 	1.52913 	1.13293
-0.419921 	1e-05 	-1.16521e-17 	1.52831 	1.13276
-0.419297 	1e-05 	-8.84686e-18 	1.52797 	1.13275
-0.418147 	1e-05 	-2.61873e-18 	1.52815 	1.13279
-0.416899 	1e-05 	5.96522e-18 	1.52888 	1.13295
-0.41565 	1e-05 	1.02558e-17 	1.53004 	1.1332
-0.414402 	1e-05 	1.01228e-17 	1.53049 	1.13328
-0.413153 	1e-05 	9.81647e-18 	1.53053 	1.13328
-0.411905 	1e-05 	1.12554e-17 	1.53047 	1.13327
-0.410656 	1e-05 	1.60364e-17 	1.52983 	1.13313
-0.409408 	1e-05 	1.90315e-17 	1.52867 	1.1329
-0.408159 	1e-05 	1.69091e-17 	1.52833 	1.13282
-0.406911 	1e-05 	1.66948e-17 	1.52836 	1.13283
-0.405662 	1e-05 	1.52662e-17 	1.5286 	1.13288
-0.404414 	1e-05 	1.08885e-17 	1.52937 	1.13304
-0.403713 	1e-05 	9.21173e-18 	1.53008 	1.13319
-0.403089 	1e-05 	8.9459e-18 	1.53089 	1.13338
-0.401917 	1e-05 	8.27526e-18 	1.53027 	1.13325
-0.400668 	1e-05 	9.8775e-18 	1.52919 	1.13303
-0.39942 	1e-05 	1.32145e-17 	1.52819 	1.13281
-0.398171 	1e-05 	1.23882e-17 	1.52787 	1.13274
-0.396923 	1e-05 	1.05211e-17 	1.52791 	1.13275
-0.395674 	1e-05 	1.07781e-17 	1.52857 	1.13289
-0.394426 	1e-05 	1.43332e-17 	1.53005 	1.1332
-0.393177 	1e-05 	1.86721e-17 	1.53121 	1.13344
-0.391929 	1e-05 	1.81104e-17 	1.53141 	1.13349
-0.39068 	1e-05 	1.73752e-17 	1.53111 	1.13342
-0.389432 	1e-05 	1.6293e-17 	1.52998 	1.13318
-0.388183 	1e-05 	1.7119e-17 	1.52857 	1.13288
-0.387526 	1e-05 	1.90737e-17 	1.52794 	1.13275
0.387397 	1e-05 	-1.46836e-18 	0.631459 	0.882494
0.388183 	1e-05 	-1.59328e-18 	0.631351 	0.882435
0.389432 	1e-05 	-1.96388e-18 	0.631175 	0.882351
0.39068 	1e-05 	5.9282e-19 	0.631024 	0.882279
0.391929 	1e-05 	4.624e-18 	0.630983 	0.882244
0.393177 	1e-05 	7.26735e-18 	0.630971 	0.882227
0.394426 	1e-05 	4.35955e-18 	0.630968 	0.882223
0.395674 	1e-05 	3.70907e-18 	0.630975 	0.882223
0.396923 	1e-05 	4.57868e-18 	0.630994 	0.882227
0.398171 	1e-05 	6.79272e-18 	0.631026 	0.882234
0.39942 	1e-05 	7.27207e-18 	0.631068 	0.882245
0.400668 	1e-05 	3.93507e-18 	0.631119 	0.88226
0.401917 	1e-05 	1.63895e-18 	0.631178 	0.882276
0.40296 	1e-05 	7.19796e-20 	0.631236 	0.88229
0.403584 	1e-05 	-6.58674e-19 	0.631214 	0.882156
0.404414 	1e-05 	4.37813e-19 	0.631279 	0.882173
0.405662 	1e-05 	3.60117e-18 	0.63136 	0.882201
0.406911 	1e-05 	2.68789e-18 	0.631434 	0.882237
0.408159 	1e-05 	2.38171e-18 	0.631465 	0.88226
0.409408 	1e-05 	4.50411e-18 	0.631469 	0.882264
0.410656 	1e-05 	7.14689e-18 	0.631466 	0.882264
0.411905 	1e-05 	8.56657e-18 	0.631452 	0.88226
0.413153 	1e-05 	5.95575e-18 	0.63143 	0.882254
0.414402 	1e-05 	2.79269e-18 	0.631414 	0.882249
0.41565 	1e-05 	1.8848e-18 	0.631404 	0.882246
0.416899 	1e-05 	-2.37351e-19 	0.631391 	0.882241
0.418147 	1e-05 	-2.87988e-18 	0.631366 	0.88223
0.419167 	1e-05 	-4.44244e-18 	0.631348 	0.882222
0.419792 	1e-05 	-4.83982e-18 	0.63134 	0.88182
0.420644 	1e-05 	-3.73973e-18 	0.631341 	0.88182
0.421893 	1e-05 	-6.80023e-18 	0.631346 	0.881821
0.423141 	1e-05 	-9.10183e-18 	0.631349 	0.881819
0.42439 	1e-05 	-6.63298e-18 	0.631348 	0.881815
0.425638 	1e-05 	-5.8989e-18 	0.631346 	0.881812
0.426887 	1e-05 	-8.11389e-18 	0.631339 	0.881806
0.428135 	1e-05 	-9.51766e-18 	0.631303 	0.881787
0.429384 	1e-05 	-7.70891e-18 	0.631233 	0.881755
0.430632 	1e-05 	-5.27696e-18 	0.631193 	0.881734
0.431881 	1e-05 	-4.18937e-18 	0.631169 	0.881722
0.433129 	1e-05 	-5.6171e-18 	0.631125 	0.881704
0.434378 	1e-05 	-6.69784e-18 	0.631103 	0.881691
0.435395 	1e-05 	-4.44309e-18 	0.631099 	0.881686
0.436019 	1e-05 	-2.97461e-18 	0.631099 	0.880996
0.436875 	1e-05 	-3.86934e-18 	0.631096 	0.880997
0.438123 	1e-05 	-8.10131e-18 	0.631097 	0.880999
0.439372 	1e-05 	-1.08371e-17 	0.63112 	0.881015
0.44062 	1e-05 	-1.28791e-17 	0.631198 	0.881054
0.441869 	1e-05 	-1.38803e-17 	0.631265 	0.881082
0.443117 	1e-05 	-1.22794e-17 	0.631301 	0.881096
0.444366 	1e-05 	-9.73423e-18 	0.631349 	0.881116
0.445614 	1e-05 	-6.62146e-18 	0.631446 	0.881154
0.446863 	1e-05 	-6.74769e-18 	0.631479 	0.881156
0.448111 	1e-05 	-8.86881e-18 	0.631477 	0.881153
0.44936 	1e-05 	-1.13368e-17 	0.631462 	0.881142
0.450608 	1e-05 	-1.01619e-17 	0.631442 	0.881129
0.451643 	1e-05 	-5.4811e-18 	0.631428 	0.88112
0.452267 	1e-05 	-1.3514e-18 	0.631444 	0.880319
0.453105 	1e-05 	-3.03011e-18 	0.631394 	0.880295
0.454354 	1e-05 	-6.98073e-18 	0.631329 	0.880264
0.455602 	1e-05 	-1.01508e-17 	0.631295 	0.880254
0.456851 	1e-05 	-1.54892e-17 	0.631282 	0.880254
0.458099 	1e-05 	-1.87461e-17 	0.631251 	0.880249
0.459348 	1e-05 	-1.92274e-17 	0.631145 	0.880216
0.460596 	1e-05 	-1.87979e-17 	0.631011 	0.880178
0.461845 	1e-05 	-1.3767e-17 	0.630968 	0.880172
0.463093 	1e-05 	-6.39003e-18 	0.630963 	0.880173
0.464342 	1e-05 	-4.8677e-18 	0.630966 	0.88018
0.46559 	1e-05 	-1.6106e-18 	0.63097 	0.880187
0.466839 	1e-05 	4.07514e-18 	0.630976 	0.880192
0.467912 	1e-05 	5.28047e-18 	0.630997 	0.880201
0.468536 	1e-05 	5.19062e-18 	0.631016 	0.879439
0.469336 	1e-05 	3.24488e-18 	0.631064 	0.879458
0.470584 	1e-05 	1.93919e-18 	0.631157 	0.879492
0.471833 	1e-05 	-7.97692e-19 	0.631257 	0.87952
0.473081 	1e-05 	2.81778e-19 	0.631329 	0.879534
0.47433 	1e-05 	4.48371e-18 	0.631367 	0.879541
0.475578 	1e-05 	1.92018e-18 	0.63138 	0.879542
0.476827 	1e-05 	-1.5805e-18 	0.631387 	0.879543
0.478075 	1e-05 	-1.21654e-18 	0.631409 	0.879553
0.479324 	1e-05 	2.47469e-18 	0.631422 	0.879562
0.480572 	1e-05 	2.78324e-18 	0.631405 	0.879556
0.481821 	1e-05 	-2.28581e-18 	0.631378 	0.879552
0.483069 	1e-05 	-1.08243e-17 	0.63136 	0.879553
0.484201 	1e-05 	-1.58734e-17 	0.631351 	0.879555
0.484825 	1e-05 	-1.51699e-17 	0.631362 	0.878964
0.485566 	1e-05 	-1.51309e-17 	0.631364 	0.878973
0.486815 	1e-05 	-1.63829e-17 	0.631366 	0.878981
0.488063 	1e-05 	-1.6605e-17 	0.631366 	0.878986
0.489312 	1e-05 	-1.63934e-17 	0.631367 	0.87899
0.49056 	1e-05 	-1.49676e-17 	0.631376 	0.878997
0.491809 	1e-05 	-1.26744e-17 	0.631383 	0.879
0.493057 	1e-05 	-1.54147e-17 	0.631378 	0.878999
0.494306 	1e-05 	-1.62413e-17 	0.631361 	0.878993
0.495554 	1e-05 	-1.57154e-17 	0.631351 	0.878991
0.496803 	1e-05 	-1.67941e-17 	0.631342 	0.878988
0.498051 	1e-05 	-1.52707e-17 	0.631318 	0.878977
0.4993 	1e-05 	-1.73901e-17 	0.631267 	0.878973
0.500861 	1e-05 	-1.71488e-17 	0.631154 	0.878884
0.502736 	1e-05 	-1.36793e-17 	0.631023 	0.878788
0.504612 	1e-05 	-1.36793e-17 	0.630955 	0.878714
0.506487 	1e-05 	-1.36793e-17 	0.630907 	0.878649
0.508362 	1e-05 	-1.36793e-17 	0.630885 	0.878594
0.510237 	1e-05 	-1.54141e-17 	0.630897 	0.878552
0.512112 	1e-05 	-1.71488e-17 	0.63094 	0.878528
0.513987 	1e-05 	-1.71488e-17 	0.631032 	0.878516
0.515862 	1e-05 	-1.71488e-17 	0.631188 	0.878517
0.517737 	1e-05 	-1.71488e-17 	0.63126 	0.878493
0.519612 	1e-05 	-1.71488e-17 	0.63132 	0.878466
0.521487 	1e-05 	-1.71488e-17 	0.631449 	0.878487
0.523363 	1e-05 	-1.71488e-17 	0.631921 	0.878647
0.525238 	1e-05 	-1.71488e-17 	0.633548 	0.879282
0.527113 	1e-05 	-1.71488e-17 	0.638179 	0.881152
0.528988 	1e-05 	-1.71488e-17 	0.647564 	0.884931
0.530863 	1e-05 	-1.71488e-17 	0.666649 	0.892624
0.532738 	1e-05 	-1.71488e-17 	0.702059 	0.906546
0.534613 	1e-05 	-1.71488e-17 	0.74341 	0.92173
0.536488 	1e-05 	-1.71488e-17 	0.788763 	0.937582
0.538363 	1e-05 	-1.71488e-17 	0.847495 	0.957299
0.540238 	1e-05 	-1.71488e-17 	0.89678 	0.973202
0.542113 	1e-05 	-1.71488e-17 	0.927145 	0.982531
0.543989 	1e-05 	-1.71488e-17 	0.961978 	0.992915
0.545864 	1e-05 	-1.71488e-17 	0.989264 	1.00087
0.547739 	1e-05 	-1.71488e-17 	0.990587 	1.00149
0.549614 	1e-05 	-1.71488e-17 	0.991791 	1.00201
0.551489 	1e-05 	-1.54141e-17 	0.996848 	1.00358
0.553364 	1e-05 	-1.36793e-17 	0.996751 	1.00351
0.555239 	1e-05 	-1.36793e-17 	0.988285 	1.00086
0.557114 	1e-05 	-1.36793e-17 	0.984022 	0.999492
0.558989 	1e-05 	-1.36793e-17 	0.988082 	1.00072
0.560864 	1e-05 	-1.36793e-17 	0.992707 	1.00211
0.56274 	1e-05 	-1.36793e-17 	0.995611 	1.00296
0.564615 	1e-05 	-1.36793e-17 	0.998361 	1.00373
0.56649 	1e-05 	-1.36793e-17 	1.00223 	1.00485
0.568365 	1e-05 	-1.36793e-17 	1.00268 	1.00506
0.57024 	1e-05 	-1.36793e-17 	1.00171 	1.00483
0.572115 	1e-05 	-1.36793e-17 	0.999654 	1.0043
0.57399 	1e-05 	-1.36793e-17 	0.998344 	1.00394
0.575865 	1e-05 	-1.36793e-17 	0.997757 	1.00377
0.57774 	1e-05 	-1.36793e-17 	0.997239 	1.00361
0.579615 	1e-05 	-1.36793e-17 	0.997437 	1.0037
0.58149 	1e-05 	-1.36793e-17 	0.997987 	1.00389
0.583366 	1e-05 	-1.36793e-17 	0.998875 	1.00415
0.585241 	1e-05 	-1.36793e-17 	0.998986 	1.00419
0.587116 	1e-05 	-1.36793e-17 	0.998711 	1.00411
0.588991 	1e-05 	-1.22916e-17 	0.998473 	1.00407
0.590866 	1e-05 	-9.16906e-18 	0.998543 	1.00411
0.592741 	1e-05 	-3.96489e-18 	0.998877 	1.00422
0.594616 	1e-05 	-4.95445e-19 	0.998767 	1.00419
0.596491 	1e-05 	-4.95445e-19 	0.998548 	1.00411
0.598366 	1e-05 	-4.95445e-19 	0.998383 	1.00405
0.600241 	1e-05 	-4.95445e-19 	0.99811 	1.00396
0.602117 	1e-05 	-2.23017e-18 	0.998028 	1.00393
0.603992 	1e-05 	-7.08739e-18 	0.998159 	1.00396
0.605867 	1e-05 	-1.02099e-17 	0.998596 	1.00408
0.607742 	1e-05 	-1.02099e-17 	0.999173 	1.00427
0.609617 	1e-05 	-1.02099e-17 	0.999457 	1.00437
0.611492 	1e-05 	-8.82212e-18 	0.999428 	1.00436
0.613367 	1e-05 	-7.43434e-18 	0.999231 	1.00431
0.615242 	1e-05 	-5.69962e-18 	0.998712 	1.00417
0.617117 	1e-05 	-8.4239e-19 	0.998207 	1.00405
0.618992 	1e-05 	2.28011e-18 	0.998166 	1.00404
0.620867 	1e-05 	8.92333e-19 	0.998303 	1.0041
0.622743 	1e-05 	-4.95445e-19 	0.998685 	1.00422
0.624618 	1e-05 	2.62706e-18 	0.999135 	1.00436
0.626493 	1e-05 	5.74956e-18 	0.999274 	1.00441
0.628368 	1e-05 	5.74956e-18 	0.999289 	1.00442
0.630243 	1e-05 	4.36178e-18 	0.999229 	1.00441
0.632118 	1e-05 	2.974e-18 	0.999105 	1.00438
0.633993 	1e-05 	1.58622e-18 	0.99906 	1.00437
0.635868 	1e-05 	1.98444e-19 	0.999044 	1.00437
0.637743 	1e-05 	1.98444e-19 	0.999137 	1.0044
0.639618 	1e-05 	1.98444e-19 	0.999313 	1.00444
0.641494 	1e-05 	1.98444e-19 	0.99934 	1.00445
0.643369 	1e-05 	1.98444e-19 	0.999281 	1.00443
0.645244 	1e-05 	1.58622e-18 	0.999144 	1.00439
0.647119 	1e-05 	2.974e-18 	0.998992 	1.00435
0.648994 	1e-05 	4.36178e-18 	0.998968 	1.00435
0.650869 	1e-05 	5.74956e-18 	0.999017 	1.00437
0.652744 	1e-05 	4.01484e-18 	0.999082 	1.0044
0.654619 	1e-05 	1.93317e-18 	0.999116 	1.00442
0.656494 	1e-05 	1.58622e-18 	0.999139 	1.00443
0.658369 	1e-05 	1.93317e-18 	0.999118 	1.00443
0.660244 	1e-05 	2.28011e-18 	0.999036 	1.00443
0.66212 	1e-05 	3.66789e-18 	0.998994 	1.00443
0.663995 	1e-05 	5.05567e-18 	0.99901 	1.00444
0.66587 	1e-05 	5.05567e-18 	0.999078 	1.00447
0.667745 	1e-05 	3.66789e-18 	0.999193 	1.00452
0.66962 	1e-05 	2.28011e-18 	0.999317 	1.00456
0.671495 	1e-05 	2.28011e-18 	0.999365 	1.00458
0.67337 	1e-05 	2.28011e-18 	0.99935 	1.00458
0.675245 	1e-05 	2.28011e-18 	0.999286 	1.00457
0.67712 	1e-05 	2.28011e-18 	0.999197 	1.00455
0.678995 	1e-05 	5.45389e-19 	0.999133 	1.00453
0.680871 	1e-05 	-1.18933e-18 	0.999103 	1.00452
0.682746 	1e-05 	-1.18933e-18 	0.999106 	1.00452
0.684621 	1e-05 	-2.92406e-18 	0.999157 	1.00453
0.686496 	1e-05 	-3.271e-18 	0.99919 	1.00454
0.688371 	1e-05 	-1.88322e-18 	0.999173 	1.00454
0.690246 	1e-05 	-1.88322e-18 	0.999119 	1.00452
0.692121 	1e-05 	-1.88322e-18 	0.999032 	1.0045
0.693996 	1e-05 	-1.88322e-18 	0.998971 	1.00449
0.695871 	1e-05 	-3.271e-18 	0.998965 	1.0045
0.697746 	1e-05 	-6.04656e-18 	0.998992 	1.00451
0.699621 	1e-05 	-9.16906e-18 	0.999075 	1.00455
0.701497 	1e-05 	-1.09038e-17 	0.999167 	1.00459
0.703372 	1e-05 	-1.09038e-17 	0.999211 	1.00462
0.705247 	1e-05 	-1.09038e-17 	0.999257 	1.00465
0.707122 	1e-05 	-1.09038e-17 	0.999366 	1.0047
0.708997 	1e-05 	-1.09038e-17 	0.999456 	1.00474
0.710872 	1e-05 	-1.09038e-17 	0.999488 	1.00476
0.712747 	1e-05 	-1.09038e-17 	0.999503 	1.00477
0.714622 	1e-05 	-1.09038e-17 	0.999519 	1.00478
0.716497 	1e-05 	-9.51601e-18 	0.999513 	1.00478
0.718372 	1e-05 	-9.86295e-18 	0.999446 	1.00476
0.720248 	1e-05 	-1.33324e-17 	0.999327 	1.00472
0.722123 	1e-05 	-1.50671e-17 	0.999184 	1.00468
0.723998 	1e-05 	-1.50671e-17 	0.999072 	1.00465
0.725873 	1e-05 	-1.50671e-17 	0.99904 	1.00463
0.727748 	1e-05 	-1.36793e-17 	0.999028 	1.00463
0.729623 	1e-05 	-1.22916e-17 	0.999038 	1.00463
0.731498 	1e-05 	-1.09038e-17 	0.999088 	1.00464