# Probe 0 (5.5 -0.5 0)
# Probe 1 (5.5 0.5 0)
#       Probe             0             1
#        Time
        0.005     -0.477804     -0.477804
         0.01     0.0387969     0.0387976
        0.015   -0.00940174   -0.00940196
         0.02   -0.00770824   -0.00770823
        0.025   -0.00675095   -0.00675092
         0.03   -0.00592037   -0.00592038
        0.035   -0.00522476   -0.00522475
         0.04   -0.00463464   -0.00463464
        0.045   -0.00412825   -0.00412826
         0.05   -0.00368355   -0.00368356
        0.055   -0.00329159   -0.00329157
         0.06     -0.002945     -0.002945
        0.065   -0.00263658   -0.00263658
         0.07   -0.00236042   -0.00236042
        0.075    -0.0021135    -0.0021135
         0.08   -0.00189134   -0.00189134
        0.085   -0.00169053   -0.00169053
         0.09   -0.00150746   -0.00150746
        0.095   -0.00134052   -0.00134052
          0.1   -0.00118946   -0.00118946
        0.105   -0.00105053   -0.00105053
         0.11   -0.00092341  -0.000923411
        0.115  -0.000807183  -0.000807184
         0.12  -0.000698502  -0.000698503
        0.125  -0.000600159   -0.00060016
         0.13  -0.000508979  -0.000508979
        0.135  -0.000423426  -0.000423426
         0.14  -0.000344141   -0.00034414
        0.145  -0.000270589  -0.000270589
         0.15   -0.00020215   -0.00020215
        0.155  -0.000138436  -0.000138435
         0.16  -7.92009e-05  -7.92002e-05
        0.165  -2.39249e-05  -2.39257e-05
         0.17   2.76387e-05   2.76399e-05
        0.175    7.5767e-05   7.57663e-05
         0.18   0.000120707   0.000120707
        0.185   0.000162551    0.00016255
         0.19   0.000201706   0.000201706
        0.195   0.000238351   0.000238352
          0.2   0.000272613   0.000272613
        0.205    0.00030468    0.00030468
         0.21   0.000334705   0.000334706
        0.215   0.000362644   0.000362644
         0.22   0.000388761   0.000388762
        0.225   0.000413362   0.000413363
         0.23   0.000436438   0.000436438
        0.235   0.000457671   0.000457671
         0.24   0.000477242   0.000477242
        0.245   0.000496068   0.000496069
         0.25   0.000515362   0.000515363
        0.255   0.000533625   0.000533626
         0.26   0.000549706   0.000549707
        0.265   0.000564812   0.000564813
         0.27     0.0005792     0.0005792
        0.275   0.000592807   0.000592807
         0.28   0.000605517   0.000605517
        0.285   0.000617724   0.000617721
         0.29   0.000628893   0.000628897
        0.295   0.000639772   0.000639769
          0.3   0.000650174   0.000650175
        0.305   0.000660103   0.000660103
         0.31   0.000669562   0.000669562
        0.315   0.000678588   0.000678588
         0.32   0.000687248   0.000687249
        0.325   0.000695366   0.000695366
         0.33   0.000703354   0.000703354
        0.335   0.000711175   0.000711175
         0.34   0.000718528   0.000718527
        0.345   0.000725577   0.000725572
         0.35   0.000732332    0.00073233
        0.355   0.000738696   0.000738702
         0.36   0.000744941   0.000744941
        0.365   0.000750812   0.000750812
         0.37   0.000756538   0.000756538
        0.375    0.00076199    0.00076199
         0.38    0.00076777    0.00076777
        0.385   0.000773574   0.000773574
         0.39   0.000778889    0.00077889
        0.395    0.00078408   0.000784079
          0.4   0.000788781   0.000788783
        0.405   0.000793488   0.000793489
         0.41   0.000798122   0.000798121
        0.415   0.000802594   0.000802595
         0.42   0.000806806   0.000806806
        0.425   0.000810956   0.000810955
         0.43   0.000814987   0.000814985
        0.435   0.000818821   0.000818822
         0.44   0.000822148   0.000822147
        0.445   0.000826505   0.000826503
         0.45   0.000830829   0.000830829
        0.455   0.000834551   0.000834553
         0.46   0.000839181   0.000839183
        0.465   0.000843153   0.000843152
         0.47   0.000847075   0.000847075
        0.475   0.000850609   0.000850609
         0.48   0.000853915   0.000853912
        0.485   0.000857133   0.000857137
         0.49   0.000860308   0.000860307
        0.495   0.000863327   0.000863327
          0.5   0.000866485   0.000866487
        0.505    0.00086948   0.000869478
         0.51    0.00087252    0.00087252
        0.515   0.000875681   0.000875683
         0.52   0.000878983   0.000878981
        0.525   0.000881947   0.000881948
         0.53   0.000884916   0.000884915
        0.535   0.000887859    0.00088786
         0.54   0.000890715   0.000890715
        0.545   0.000893438   0.000893439
         0.55    0.00089627    0.00089627
        0.555   0.000899013   0.000899013
         0.56   0.000901647   0.000901648
        0.565    0.00090428    0.00090428
         0.57   0.000907326   0.000907326
        0.575   0.000910569   0.000910569
         0.58    0.00091338    0.00091338
        0.585    0.00091569   0.000915692
         0.59   0.000918485   0.000918484
        0.595   0.000920863   0.000920865
          0.6   0.000923558   0.000923557
        0.605   0.000926233   0.000926233
         0.61   0.000928572   0.000928573
        0.615    0.00093101   0.000931009
         0.62   0.000933812   0.000933813
        0.625   0.000936368   0.000936369
         0.63   0.000938784   0.000938784
        0.635   0.000941603   0.000941604
         0.64   0.000944298   0.000944298
        0.645   0.000947352   0.000947352
         0.65   0.000950531   0.000950531
        0.655   0.000953096   0.000953097
         0.66   0.000955573   0.000955573
        0.665    0.00095809   0.000958091
         0.67   0.000960737   0.000960738
        0.675     0.0009635     0.0009635
         0.68   0.000966015   0.000966016
        0.685   0.000968178    0.00096818
         0.69   0.000970601     0.0009706
        0.695   0.000972839    0.00097284
          0.7   0.000974431   0.000974432
        0.705   0.000975897   0.000975896
         0.71   0.000976388   0.000976388
        0.715    0.00098232   0.000982323
         0.72   0.000989567   0.000989564
        0.725   0.000992655   0.000992656
         0.73    0.00099534    0.00099534
        0.735   0.000998216   0.000998216
         0.74    0.00100043    0.00100043
        0.745    0.00100304    0.00100303
         0.75    0.00100554    0.00100554
        0.755    0.00100813    0.00100814
         0.76    0.00101086    0.00101086
        0.765     0.0010135     0.0010135
         0.77    0.00101651    0.00101651
        0.775     0.0010187     0.0010187
         0.78    0.00102172    0.00102172
        0.785    0.00102536    0.00102536
         0.79    0.00102825    0.00102825
        0.795       0.00103    0.00103001
          0.8    0.00103326    0.00103325
        0.805    0.00103707    0.00103707
         0.81    0.00103987    0.00103988
        0.815    0.00104284    0.00104283
         0.82    0.00104599      0.001046
        0.825    0.00104918    0.00104918
         0.83    0.00105134    0.00105134
        0.835    0.00105444    0.00105443
         0.84    0.00105739    0.00105739
        0.845    0.00106046    0.00106046
         0.85    0.00106366    0.00106366
        0.855    0.00106664    0.00106664
         0.86    0.00107023    0.00107023
        0.865    0.00107322    0.00107322
         0.87    0.00107655    0.00107654
        0.875    0.00107969    0.00107969
         0.88    0.00108279    0.00108279
        0.885    0.00108583    0.00108583
         0.89    0.00108867    0.00108867
        0.895    0.00109106    0.00109106
          0.9    0.00109565    0.00109565
        0.905    0.00110104    0.00110105
         0.91    0.00110634    0.00110634
        0.915    0.00110928    0.00110928
         0.92    0.00111269    0.00111268
        0.925    0.00111672    0.00111672
         0.93      0.001119    0.00111901
        0.935    0.00112252    0.00112251
         0.94     0.0011261     0.0011261
        0.945    0.00112978    0.00112978
         0.95    0.00113347    0.00113347
        0.955    0.00113735    0.00113735
         0.96    0.00114009    0.00114009
        0.965    0.00114386    0.00114386
         0.97    0.00114778    0.00114778
        0.975    0.00115135    0.00115136
         0.98      0.001155      0.001155
        0.985    0.00115884    0.00115884
         0.99    0.00116277    0.00116277
        0.995    0.00116711    0.00116711
            1    0.00116979    0.00116979
        1.005    0.00117362    0.00117362
         1.01    0.00117782    0.00117782
        1.015    0.00118208    0.00118208
         1.02     0.0011862     0.0011862
        1.025    0.00119053    0.00119052
         1.03    0.00119396    0.00119396
        1.035    0.00119846    0.00119845
         1.04    0.00120259     0.0012026
        1.045    0.00120708    0.00120707
         1.05    0.00121126    0.00121126
        1.055    0.00121597    0.00121597
         1.06    0.00121962    0.00121963
        1.065    0.00122285    0.00122285
         1.07    0.00122764    0.00122764
        1.075    0.00123272    0.00123272
         1.08    0.00123719    0.00123719
        1.085    0.00124154    0.00124154
         1.09    0.00124615    0.00124615
        1.095    0.00125128    0.00125128
          1.1    0.00125486    0.00125486
        1.105    0.00125966    0.00125966
         1.11    0.00126423    0.00126423
        1.115    0.00126884    0.00126884
         1.12    0.00127349    0.00127349
        1.125    0.00127812    0.00127812
         1.13    0.00128284    0.00128284
        1.135    0.00128763    0.00128763
         1.14    0.00129254    0.00129254
        1.145    0.00129775    0.00129775
         1.15    0.00130299    0.00130299
        1.155    0.00130627    0.00130627
         1.16    0.00131123    0.00131123
        1.165     0.0013168    0.00131679
         1.17    0.00132143    0.00132144
        1.175    0.00132566    0.00132567
         1.18    0.00133182    0.00133181
        1.185    0.00133489     0.0013349
         1.19    0.00134021    0.00134022
        1.195    0.00134556    0.00134556
          1.2    0.00135038    0.00135038
        1.205    0.00135505    0.00135505
         1.21    0.00136206    0.00136205
        1.215    0.00136654    0.00136654
         1.22    0.00137182    0.00137182
        1.225    0.00137702    0.00137702
         1.23    0.00138248    0.00138248
        1.235    0.00138672    0.00138673
         1.24    0.00139222    0.00139222
        1.245    0.00139842    0.00139842
         1.25    0.00140527    0.00140527
        1.255    0.00141176    0.00141175
         1.26      0.001415    0.00141501
        1.265     0.0014201    0.00142011
         1.27    0.00142548    0.00142548
        1.275    0.00143079    0.00143079
         1.28    0.00143596    0.00143596
        1.285    0.00144215    0.00144215
         1.29    0.00144863    0.00144863
        1.295    0.00145448    0.00145448
          1.3    0.00146004    0.00146004
        1.305    0.00146565    0.00146565
         1.31    0.00147151    0.00147152
        1.315    0.00147728    0.00147728
         1.32     0.0014836     0.0014836
        1.325    0.00149008    0.00149007
         1.33    0.00149418    0.00149418
        1.335    0.00149962    0.00149962
         1.34    0.00150549     0.0015055
        1.345    0.00151093    0.00151093
         1.35    0.00151534    0.00151533
        1.355     0.0015226     0.0015226
         1.36    0.00152772    0.00152773
        1.365    0.00153462    0.00153462
         1.37    0.00154201    0.00154201
        1.375    0.00154664    0.00154664
         1.38    0.00154875    0.00154875
        1.385    0.00155844    0.00155844
         1.39    0.00157246    0.00157246
        1.395    0.00158029    0.00158029
          1.4     0.0015865     0.0015865
        1.405    0.00159253    0.00159253
         1.41    0.00159858    0.00159858
        1.415     0.0016048     0.0016048
         1.42    0.00161115    0.00161116
        1.425    0.00161782    0.00161782
         1.43    0.00162442    0.00162442
        1.435    0.00163121    0.00163121
         1.44    0.00163643    0.00163643
        1.445    0.00164174    0.00164174
         1.45     0.0016483    0.00164831
        1.455    0.00165474    0.00165474
         1.46      0.001661      0.001661
        1.465      0.001668      0.001668
         1.47    0.00167508    0.00167509
        1.475    0.00168229    0.00168229
         1.48    0.00168897    0.00168897
        1.485    0.00169581    0.00169581
         1.49     0.0017024     0.0017024
        1.495    0.00170914    0.00170914
          1.5    0.00171585    0.00171585
        1.505    0.00172242    0.00172242
         1.51    0.00172923    0.00172923
        1.515    0.00173673    0.00173673
         1.52    0.00174449    0.00174449
        1.525    0.00175271    0.00175271
         1.53    0.00175994    0.00175994
        1.535     0.0017671    0.00176711
         1.54     0.0017744     0.0017744
        1.545    0.00178157    0.00178157
         1.55    0.00178911    0.00178911
        1.555      0.001797      0.001797
         1.56    0.00180614    0.00180614
        1.565    0.00181386    0.00181386
         1.57    0.00181752    0.00181753
        1.575    0.00182516    0.00182516
         1.58    0.00183395    0.00183394
        1.585    0.00184061    0.00184061
         1.59    0.00184429    0.00184429
        1.595    0.00185185    0.00185185
          1.6    0.00185925    0.00185925
        1.605    0.00186754    0.00186754
         1.61    0.00187529    0.00187529
        1.615    0.00188306    0.00188306
         1.62    0.00189125    0.00189125
        1.625    0.00189988    0.00189988
         1.63    0.00190309    0.00190309
        1.635    0.00190991    0.00190991
         1.64    0.00191751    0.00191751
        1.645    0.00192506    0.00192506
         1.65    0.00193282    0.00193282
        1.655     0.0019407     0.0019407
         1.66    0.00194871    0.00194871
        1.665     0.0019566     0.0019566
         1.67    0.00196454    0.00196454
        1.675    0.00197247    0.00197247
         1.68    0.00198069    0.00198069
        1.685    0.00198907    0.00198907
         1.69    0.00199765    0.00199765
        1.695     0.0020056     0.0020056
          1.7    0.00200952    0.00200953
        1.705    0.00201566    0.00201566
         1.71    0.00202333    0.00202333
        1.715    0.00203054    0.00203054
         1.72    0.00203898    0.00203898
        1.725    0.00204809    0.00204809
         1.73    0.00205799    0.00205799
        1.735    0.00206569    0.00206569
         1.74    0.00207301    0.00207301
        1.745    0.00208156    0.00208156
         1.75    0.00209052    0.00209052
        1.755    0.00209912    0.00209912
         1.76     0.0021078     0.0021078
        1.765     0.0021164     0.0021164
         1.77    0.00212507    0.00212507
        1.775    0.00213329    0.00213329
         1.78    0.00214163    0.00214163
        1.785    0.00215008    0.00215008
         1.79    0.00215865    0.00215865
        1.795    0.00216751    0.00216751
          1.8    0.00217633    0.00217633
        1.805     0.0021816    0.00218161
         1.81    0.00218659    0.00218659
        1.815    0.00219434    0.00219434
         1.82    0.00220356    0.00220355
        1.825     0.0022119     0.0022119
         1.83    0.00222015    0.00222015
        1.835    0.00222731    0.00222732
         1.84    0.00223681     0.0022368
        1.845    0.00224489     0.0022449
         1.85    0.00225284    0.00225284
        1.855    0.00226056    0.00226056
         1.86    0.00226735    0.00226735
        1.865    0.00227432    0.00227432
         1.87    0.00227903    0.00227903
        1.875     0.0022955     0.0022955
         1.88    0.00231514    0.00231514
        1.885    0.00232252    0.00232253
         1.89      0.002331      0.002331
        1.895    0.00233917    0.00233917
          1.9    0.00234727    0.00234727
        1.905    0.00235514    0.00235514
         1.91    0.00236319    0.00236319
        1.915    0.00237309     0.0023731
         1.92    0.00238339    0.00238339
        1.925    0.00239188    0.00239188
         1.93    0.00240018    0.00240018
        1.935     0.0024088     0.0024088
         1.94    0.00241765    0.00241765
        1.945    0.00242906    0.00242907
         1.95    0.00243909    0.00243908
        1.955    0.00244817    0.00244817
         1.96    0.00245389     0.0024539
        1.965    0.00246336    0.00246335
         1.97    0.00247026    0.00247026
        1.975    0.00247839    0.00247838
         1.98    0.00248483    0.00248483
        1.985    0.00249407    0.00249407
         1.99    0.00250312    0.00250312
        1.995    0.00251218    0.00251219
            2    0.00252118    0.00252119
        2.005    0.00252996    0.00252996
         2.01    0.00253872    0.00253872
        2.015    0.00254918    0.00254918
         2.02    0.00255993    0.00255993
        2.025    0.00256932    0.00256932
         2.03    0.00257826    0.00257826
        2.035    0.00258704    0.00258704
         2.04    0.00259667    0.00259667
        2.045    0.00260642    0.00260642
         2.05    0.00261615    0.00261616
        2.055    0.00262581    0.00262581
         2.06    0.00263591    0.00263591
        2.065    0.00264679    0.00264679
         2.07    0.00265226    0.00265226
        2.075    0.00266071    0.00266071
         2.08    0.00267046    0.00267046
        2.085    0.00268337    0.00268337
         2.09    0.00268803    0.00268803
        2.095    0.00269718    0.00269718
          2.1    0.00270741    0.00270741
        2.105    0.00271818    0.00271818
         2.11    0.00273157    0.00273158
        2.115    0.00273608    0.00273608
         2.12    0.00274558    0.00274558
        2.125    0.00275511    0.00275511
         2.13    0.00276471    0.00276471
        2.135    0.00277436    0.00277436
         2.14    0.00278406    0.00278406
        2.145    0.00279388    0.00279388
         2.15    0.00280377    0.00280377
        2.155    0.00281401    0.00281401
         2.16    0.00282575    0.00282575
        2.165    0.00283403    0.00283403
         2.17    0.00283988    0.00283988
        2.175    0.00284954    0.00284954
         2.18    0.00285937    0.00285937
        2.185     0.0028692     0.0028692
         2.19    0.00287889    0.00287889
        2.195    0.00288856    0.00288856
          2.2    0.00289816    0.00289816
        2.205    0.00290795    0.00290795
         2.21    0.00291771    0.00291771
        2.215    0.00292751    0.00292752
         2.22    0.00293727    0.00293727
        2.225    0.00294707    0.00294707
         2.23    0.00295706    0.00295706
        2.235    0.00296733    0.00296732
         2.24    0.00297443    0.00297443
        2.245    0.00298377    0.00298378
         2.25    0.00298599    0.00298598
        2.255    0.00298745    0.00298745
         2.26    0.00300412    0.00300412
        2.265    0.00302213    0.00302213
         2.27     0.0030413    0.00304129
        2.275      0.003051    0.00305101
         2.28    0.00306074    0.00306074
        2.285    0.00307051    0.00307051
         2.29    0.00308018    0.00308018
        2.295    0.00308982    0.00308982
          2.3    0.00309955    0.00309955
        2.305    0.00310921    0.00310921
         2.31    0.00311943    0.00311943
        2.315    0.00312991     0.0031299
         2.32    0.00313994    0.00313994
        2.325    0.00314996    0.00314997
         2.33    0.00316004    0.00316004
        2.335    0.00317015    0.00317015
         2.34    0.00318027    0.00318027
        2.345    0.00319036    0.00319036
         2.35     0.0032005     0.0032005
        2.355     0.0032113     0.0032113
         2.36    0.00322212    0.00322212
        2.365    0.00323365    0.00323365
         2.37    0.00324475    0.00324475
        2.375    0.00325132    0.00325131
         2.38    0.00325788    0.00325788
        2.385    0.00326631    0.00326631
         2.39    0.00327923    0.00327923
        2.395    0.00328996    0.00328996
          2.4    0.00330032    0.00330032
        2.405    0.00331061    0.00331061
         2.41    0.00332088    0.00332088
        2.415    0.00333108    0.00333108
         2.42    0.00334121    0.00334121
        2.425    0.00335114    0.00335114
         2.43    0.00336044    0.00336044
        2.435    0.00337227    0.00337227
         2.44    0.00338405    0.00338405
        2.445    0.00339483    0.00339483
         2.45    0.00340467    0.00340467
        2.455    0.00341515    0.00341515
         2.46    0.00342627    0.00342627
        2.465    0.00343779    0.00343779
         2.47    0.00345046    0.00345046
        2.475    0.00345832    0.00345832
         2.48      0.003468    0.00346801
        2.485    0.00347843    0.00347843
         2.49    0.00348892    0.00348892
        2.495    0.00349942    0.00349942
          2.5    0.00350988    0.00350988
        2.505    0.00352048    0.00352048
         2.51    0.00353111    0.00353111
        2.515     0.0035418     0.0035418
         2.52    0.00355259    0.00355259
        2.525    0.00356088    0.00356088
         2.53    0.00356982    0.00356982
        2.535    0.00357893    0.00357893
         2.54     0.0035904    0.00359041
        2.545    0.00360211    0.00360211
         2.55    0.00361265    0.00361265
        2.555    0.00362087    0.00362087
         2.56    0.00362734    0.00362733
        2.565    0.00363235    0.00363235
         2.57    0.00363398    0.00363398
        2.575    0.00365379     0.0036538
         2.58    0.00367932    0.00367933
        2.585    0.00369362    0.00369362
         2.59    0.00370495    0.00370496
        2.595    0.00371589    0.00371589
          2.6    0.00372678    0.00372678
        2.605     0.0037379    0.00373791
         2.61    0.00374912    0.00374912
        2.615    0.00376016    0.00376017
         2.62    0.00377113    0.00377113
        2.625    0.00378217    0.00378217
         2.63    0.00379336    0.00379336
        2.635    0.00380491    0.00380491
         2.64    0.00381635    0.00381635
        2.645    0.00382779    0.00382779
         2.65    0.00383919     0.0038392
        2.655    0.00385064    0.00385064
         2.66    0.00386227    0.00386227
        2.665    0.00387391    0.00387391
         2.67    0.00388549    0.00388549
        2.675    0.00389708    0.00389708
         2.68    0.00390871    0.00390871
        2.685    0.00392044    0.00392044
         2.69     0.0039323     0.0039323
        2.695    0.00394438    0.00394438
          2.7    0.00395729    0.00395729
        2.705    0.00396859    0.00396859
         2.71    0.00397516    0.00397516
        2.715    0.00398654    0.00398654
         2.72    0.00399835    0.00399835
        2.725    0.00401013    0.00401013
         2.73    0.00402199    0.00402199
        2.735    0.00403394    0.00403394
         2.74    0.00404596    0.00404596
        2.745    0.00405793    0.00405793
         2.75    0.00407317    0.00407317
        2.755    0.00408099    0.00408099
         2.76    0.00409286    0.00409286
        2.765    0.00410482    0.00410482
         2.77    0.00411675    0.00411675
        2.775    0.00412927    0.00412927
         2.78    0.00414149    0.00414149
        2.785    0.00415374    0.00415374
         2.79    0.00416622    0.00416622
        2.795    0.00417872    0.00417872
          2.8    0.00419189    0.00419189
        2.805    0.00420482    0.00420483
         2.81    0.00421928    0.00421928
        2.815    0.00423593    0.00423593
         2.82    0.00425463    0.00425464
        2.825    0.00425907    0.00425907
         2.83    0.00426425    0.00426425
        2.835    0.00426156    0.00426156
         2.84    0.00427419    0.00427419
        2.845    0.00428773    0.00428773
         2.85    0.00429919    0.00429918
        2.855    0.00430933    0.00430934
         2.86    0.00431864    0.00431864
        2.865    0.00433074    0.00433075
         2.87    0.00434214    0.00434215
        2.875    0.00435559    0.00435559
         2.88    0.00436767    0.00436767
        2.885    0.00437914    0.00437914
         2.89     0.0043908     0.0043908
        2.895    0.00440473    0.00440474
          2.9    0.00441878    0.00441878
        2.905    0.00442685    0.00442685
         2.91    0.00443585    0.00443585
        2.915    0.00444786    0.00444787
         2.92    0.00446075    0.00446075
        2.925    0.00447654    0.00447654
         2.93    0.00448325    0.00448326
        2.935    0.00449491    0.00449491
         2.94    0.00450699    0.00450699
        2.945    0.00451905    0.00451905
         2.95    0.00453121    0.00453121
        2.955    0.00454332    0.00454332
         2.96    0.00455526    0.00455527
        2.965    0.00456694    0.00456694
         2.97    0.00458002    0.00458002
        2.975    0.00459306    0.00459306
         2.98    0.00460635    0.00460635
        2.985     0.0046182     0.0046182
         2.99    0.00463037    0.00463037
        2.995    0.00464289    0.00464289
            3    0.00465556    0.00465556
        3.005    0.00466842    0.00466842
         3.01     0.0046815     0.0046815
        3.015    0.00469499    0.00469499
         3.02     0.0047091     0.0047091
        3.025    0.00472526    0.00472527
         3.03    0.00473745    0.00473745
        3.035    0.00474337    0.00474336
         3.04    0.00474449    0.00474449
        3.045    0.00475715    0.00475715
         3.05    0.00477015    0.00477015
        3.055     0.0047833     0.0047833
         3.06    0.00479585    0.00479585
        3.065    0.00480864    0.00480864
         3.07    0.00482207    0.00482207
        3.075    0.00483669    0.00483669
         3.08    0.00484659    0.00484659
        3.085    0.00485387    0.00485388
         3.09    0.00486712    0.00486712
        3.095    0.00488027    0.00488027
          3.1    0.00489361    0.00489361
        3.105    0.00490712    0.00490713
         3.11    0.00491977    0.00491977
        3.115    0.00493261    0.00493261
         3.12    0.00494624    0.00494625
        3.125    0.00495881    0.00495881
         3.13    0.00497279    0.00497279
        3.135    0.00498583    0.00498583
         3.14    0.00499819    0.00499819
        3.145    0.00501078    0.00501078
         3.15    0.00502317    0.00502317
        3.155    0.00503582    0.00503582
         3.16    0.00504995    0.00504995
        3.165    0.00506465    0.00506466
         3.17    0.00507808    0.00507808
        3.175    0.00509116    0.00509117
         3.18    0.00510461    0.00510461
        3.185    0.00511842    0.00511842
         3.19     0.0051337     0.0051337
        3.195    0.00515227    0.00515227
          3.2    0.00515834    0.00515834
        3.205    0.00516542    0.00516541
         3.21    0.00516766    0.00516766
        3.215    0.00518121    0.00518121
         3.22    0.00519198    0.00519198
        3.225    0.00520767    0.00520767
         3.23    0.00522101    0.00522101
        3.235    0.00523478    0.00523478
         3.24    0.00524864    0.00524863
        3.245    0.00526234    0.00526235
         3.25    0.00527574    0.00527574
        3.255    0.00528888    0.00528888
         3.26    0.00530209    0.00530209
        3.265    0.00531568    0.00531568
         3.27    0.00532924    0.00532924
        3.275     0.0053429     0.0053429
         3.28    0.00535681     0.0053568
        3.285    0.00537088    0.00537088
         3.29    0.00538495    0.00538495
        3.295    0.00539472    0.00539472
          3.3    0.00540451    0.00540451
        3.305    0.00541843    0.00541843
         3.31     0.0054333     0.0054333
        3.315     0.0054486     0.0054486
         3.32    0.00546467    0.00546467
        3.325    0.00548077    0.00548078
         3.33    0.00549402    0.00549403
        3.335    0.00550146    0.00550146
         3.34    0.00550816    0.00550815
        3.345    0.00551748    0.00551748
         3.35    0.00553147    0.00553147
        3.355    0.00554588    0.00554588
         3.36    0.00555956    0.00555956
        3.365    0.00557366    0.00557366
         3.37    0.00558782    0.00558782
        3.375    0.00560227    0.00560226
         3.38    0.00561511    0.00561512
        3.385    0.00562829    0.00562829
         3.39    0.00564241    0.00564241
        3.395    0.00565585    0.00565586
          3.4    0.00566883    0.00566883
        3.405    0.00568203    0.00568203
         3.41     0.0056976     0.0056976
        3.415    0.00571232    0.00571232
         3.42    0.00572609    0.00572609
        3.425     0.0057399     0.0057399
         3.43    0.00575341    0.00575341
        3.435    0.00576939    0.00576939
         3.44    0.00578758    0.00578759
        3.445    0.00579665    0.00579664
         3.45    0.00580486    0.00580486
        3.455    0.00581583    0.00581583
         3.46    0.00582958    0.00582958
        3.465    0.00584369     0.0058437
         3.47    0.00585791    0.00585791
        3.475    0.00587195    0.00587195
         3.48    0.00588725    0.00588725
        3.485    0.00590328    0.00590328
         3.49    0.00592001    0.00592001
        3.495    0.00592832    0.00592832
          3.5    0.00593831    0.00593832
        3.505    0.00595253    0.00595253
         3.51    0.00596738    0.00596739
        3.515    0.00598237    0.00598237
         3.52    0.00599703    0.00599703
        3.525    0.00601277    0.00601277
         3.53    0.00602958    0.00602957
        3.535     0.0060388     0.0060388
         3.54    0.00604784    0.00604784
        3.545    0.00606174    0.00606174
         3.55    0.00607736    0.00607736
        3.555    0.00609143    0.00609143