/*--------------------------------*- C++ -*----------------------------------*\
  =========                 |
  \\      /  F ield         | OpenFOAM: The Open Source CFD Toolbox
   \\    /   O peration     | Website:  https://openfoam.org
    \\  /    A nd           | Version:  7
     \\/     M anipulation  |
\*---------------------------------------------------------------------------*/
FoamFile
{
    version     2.0;
    format      ascii;
    class       volScalarField;
    location    "0.5";
    object      p;
}
// * * * * * * * * * * * * * * * * * * * * * * * * * * * * * * * * * * * * * //

dimensions      [0 2 -2 0 0 0 0];

internalField   nonuniform List<scalar> 
3200
(
9.7807e-09
1.3341e-05
-1.62485e-05
-9.16312e-05
-0.000205456
-0.000350008
-0.000518144
-0.00070391
-0.000902875
-0.00111207
-0.0013298
-0.00155535
-0.00178881
-0.00203076
-0.00228219
-0.00254423
-0.00281814
-0.00310513
-0.00340635
-0.00372282
-0.00405543
-0.00440485
-0.00477161
-0.00515599
-0.00555806
-0.00597762
-0.00641412
-0.00686665
-0.00733383
-0.00781375
-0.00830383
-0.00880067
-0.00929996
-0.00979623
-0.0102827
-0.0107512
-0.0111918
-0.0115925
-0.0119394
-0.0122163
-0.0124045
-0.0124829
-0.0124278
-0.012213
-0.0118102
-0.0111891
-0.0103182
-0.00916537
-0.00769892
-0.0058888
-0.00370811
-0.00113482
0.00184627
0.00524153
0.0090463
0.0132428
0.0177983
0.0226635
0.0277755
0.0330484
0.038385
0.0436748
0.0487981
0.0536321
0.0580571
0.0619644
0.0652635
0.0678897
0.0698095
0.0710247
0.0715729
0.0715261
0.0709854
0.0700752
0.068935
0.0677112
0.0665539
0.0656095
0.0650291
0.0648899
-1.3768e-05
-5.7974e-07
-2.98902e-05
-9.86852e-05
-0.000199822
-0.000328118
-0.000478602
-0.000646785
-0.000829134
-0.00102308
-0.00122704
-0.00144015
-0.00166221
-0.00189343
-0.00213439
-0.00238582
-0.00264855
-0.00292344
-0.00321129
-0.00351281
-0.00382859
-0.00415906
-0.0045045
-0.00486499
-0.00524038
-0.00563028
-0.00603397
-0.00645041
-0.00687809
-0.007315
-0.00775853
-0.00820534
-0.00865118
-0.00909082
-0.00951782
-0.00992441
-0.0103013
-0.0106373
-0.0109197
-0.0111333
-0.011261
-0.0112833
-0.0111785
-0.0109226
-0.0104896
-0.00985179
-0.00898023
-0.00784543
-0.00641826
-0.00467106
-0.00257902
-0.000121742
0.00271497
0.00593719
0.00954092
0.0135101
0.017815
0.0224115
0.0272376
0.032219
0.0372651
0.0422736
0.0471343
0.051734
0.0559626
0.05972
0.0629234
0.0655137
0.0674608
0.068767
0.0694675
0.0696284
0.0693417
0.068719
0.0678832
0.066961
0.0660757
0.0653418
0.0648743
0.0647474
1.62555e-05
2.78046e-05
-2.83676e-06
-6.95087e-05
-0.000164686
-0.000284158
-0.000424056
-0.000580789
-0.000751493
-0.000934043
-0.00112703
-0.00132966
-0.00154162
-0.00176298
-0.00199406
-0.00223537
-0.00248748
-0.00275098
-0.00302643
-0.0033143
-0.00361497
-0.00392868
-0.00425553
-0.00459545
-0.00494818
-0.0053132
-0.00568974
-0.0060767
-0.00647259
-0.00687546
-0.00728283
-0.00769153
-0.00809764
-0.00849629
-0.00888156
-0.00924632
-0.00958203
-0.00987857
-0.0101241
-0.0103048
-0.010405
-0.0104066
-0.0102895
-0.0100314
-0.00960792
-0.00899292
-0.00815891
-0.00707764
-0.00572092
-0.00406163
-0.00207505
0.000259686
0.00295784
0.0060272
0.00946613
0.0132615
0.0173871
0.0218032
0.0264523
0.031264
0.0361524
0.0410197
0.0457596
0.050262
0.0544193
0.058133
0.0613211
0.0639244
0.0659125
0.0672863
0.0680791
0.0683545
0.0682005
0.0677231
0.0670371
0.0662581
0.0654944
0.0648423
0.0643882
0.0641904
9.54428e-05
9.71261e-05
6.0235e-05
-8.88011e-06
-0.000103298
-0.000219227
-0.000353378
-0.000502824
-0.000665247
-0.000838953
-0.00102282
-0.00121619
-0.00141882
-0.00163073
-0.00185218
-0.00208351
-0.00232513
-0.00257747
-0.00284089
-0.00311572
-0.00340215
-0.00370031
-0.00401016
-0.00433154
-0.00466413
-0.0050074
-0.0053606
-0.0057227
-0.00609235
-0.00646783
-0.00684692
-0.00722686
-0.0076042
-0.00797472
-0.00833321
-0.00867342
-0.00898779
-0.00926736
-0.00950149
-0.00967777
-0.00978178
-0.00979696
-0.00970452
-0.0094834
-0.00911031
-0.00855993
-0.00780525
-0.00681808
-0.00556977
-0.00403224
-0.00217919
1.24027e-05
0.00256056
0.00547635
0.00876188
0.012408
0.0163921
0.020681
0.0252193
0.0299401
0.0347605
0.0395844
0.0443059
0.0488142
0.0529994
0.0567599
0.0600093
0.0626841
0.0647492
0.0662019
0.0670726
0.0674226
0.0673388
0.0669255
0.0662949
0.0655577
0.0648156
0.0641552
0.0636382
0.0632973
0.000218948
0.000201756
0.000152957
7.73179e-05
-2.00417e-05
-0.000135743
-0.000267
-0.000411503
-0.000567489
-0.000733712
-0.000909379
-0.00109407
-0.00128766
-0.00149022
-0.00170197
-0.0019232
-0.0021542
-0.00239527
-0.00264664
-0.00290851
-0.00318096
-0.00346399
-0.00375753
-0.00406137
-0.00437519
-0.00469853
-0.00503077
-0.00537106
-0.00571835
-0.00607127
-0.0064281
-0.00678666
-0.00714424
-0.00749746
-0.00784214
-0.00817312
-0.00848414
-0.00876757
-0.00901424
-0.0092132
-0.00935147
-0.00941387
-0.0093828
-0.00923814
-0.00895721
-0.00851488
-0.00788382
-0.00703494
-0.0059381
-0.00456309
-0.0028808
-0.000864825
0.00150679
0.00424952
0.00737017
0.010865
0.0147178
0.0188937
0.0233479
0.0280154
0.0328154
0.0376526
0.0424205
0.0470055
0.0512935
0.0551763
0.0585603
0.0613736
0.0635732
0.0651489
0.0661258
0.0665615
0.0665412
0.0661688
0.0655565
0.0648142
0.0640421
0.0633236
0.0626987
0.0621767
0.000380621
0.00033714
0.000271443
0.000185502
8.18782e-05
-3.65074e-05
-0.000167365
-0.000309016
-0.000460265
-0.000620344
-0.000788837
-0.000965604
-0.0011507
-0.0013443
-0.00154666
-0.00175803
-0.00197867
-0.00220878
-0.00244851
-0.00269795
-0.00295714
-0.00322602
-0.0035045
-0.00379241
-0.00408954
-0.00439558
-0.00471016
-0.00503278
-0.00536281
-0.00569946
-0.00604168
-0.00638816
-0.00673713
-0.00708636
-0.00743294
-0.00777312
-0.00810213
-0.00841392
-0.00870094
-0.00895376
-0.00916085
-0.00930825
-0.00937928
-0.00935435
-0.00921084
-0.00892311
-0.00846268
-0.00779869
-0.00689854
-0.00572886
-0.00425683
-0.0024517
-0.000286731
0.00225874
0.00519699
0.00852971
0.0122457
0.0163179
0.0207037
0.0253425
0.0301565
0.0350513
0.0399195
0.0446441
0.049105
0.0531861
0.0567831
0.0598126
0.0622193
0.0639821
0.0651163
0.0656733
0.0657349
0.0654045
0.0647961
0.0640222
0.0631867
0.0623756
0.0616141
0.0608943
0.000573438
0.000497879
0.000411004
0.00031146
0.000198675
7.50696e-05
-5.75744e-05
-0.00019824
-0.000346332
-0.000501585
-0.000663999
-0.00083375
-0.00101112
-0.00119643
-0.00139001
-0.00159213
-0.00180303
-0.00202287
-0.00225176
-0.00248974
-0.00273683
-0.002993
-0.00325821
-0.00353241
-0.00381559
-0.00410773
-0.00440884
-0.00471892
-0.00503798
-0.00536599
-0.00570284
-0.00604828
-0.00640182
-0.00676261
-0.00712927
-0.00749972
-0.00787091
-0.00823852
-0.00859667
-0.00893749
-0.00925075
-0.00952346
-0.00973949
-0.0098793
-0.00991969
-0.0098338
-0.00959126
-0.00915864
-0.00850008
-0.00757839
-0.00635629
-0.00479817
-0.00287192
-0.000551223
0.00218216
0.00533595
0.0089049
0.0128685
0.0171893
0.0218116
0.0266611
0.0316455
0.0366569
0.0415752
0.0462739
0.0506273
0.0545185
0.0578491
0.0605474
0.0625765
0.0639377
0.0646717
0.064854
0.0645867
0.0639862
0.0631706
0.0622524
0.0613264
0.06041
0.059485
0.000790026
0.00067769
0.000566021
0.000450103
0.000325756
0.000194843
5.86057e-05
-8.2649e-05
-0.000228966
-0.000380617
-0.000538043
-0.000701766
-0.000872322
-0.00105021
-0.00123585
-0.00142957
-0.00163163
-0.00184218
-0.00206132
-0.00228911
-0.00252559
-0.00277082
-0.0030249
-0.00328801
-0.00356044
-0.00384259
-0.00413501
-0.00443838
-0.00475355
-0.00508148
-0.00542324
-0.00577989
-0.00615247
-0.00654178
-0.00694821
-0.00737155
-0.0078106
-0.00826287
-0.00872415
-0.00918799
-0.00964526
-0.0100836
-0.010487
-0.0108354
-0.0111045
-0.0112655
-0.0112856
-0.0111282
-0.0107537
-0.0101205
-0.0091868
-0.0079117
-0.00625761
-0.00419233
-0.0016914
0.00125937
0.0046614
0.00850104
0.0127475
0.0173512
0.0222429
0.027334
0.0325174
0.0376711
0.0426629
0.0473568
0.0516217
0.0553413
0.0584236
0.0608105
0.0624839
0.0634685
0.0638295
0.0636651
0.0630941
0.0622426
0.0612357
0.0601826
0.0590996
0.0579634
0.0010227
0.000869549
0.000730189
0.000595637
0.000457784
0.000317885
0.000176589
3.34316e-05
-0.000112316
-0.000261495
-0.000415011
-0.000573749
-0.000738514
-0.000909989
-0.00108872
-0.0012751
-0.00146942
-0.00167187
-0.00188258
-0.00210165
-0.00232923
-0.00256553
-0.00281088
-0.00306578
-0.00333095
-0.00360737
-0.00389629
-0.00419925
-0.00451814
-0.00485514
-0.00521271
-0.00559352
-0.00600032
-0.00643579
-0.00690229
-0.00740158
-0.00793443
-0.00850013
-0.00909604
-0.00971695
-0.0103545
-0.0109966
-0.0116269
-0.0122242
-0.0127626
-0.0132111
-0.0135338
-0.0136907
-0.0136381
-0.0133304
-0.0127206
-0.011763
-0.0104145
-0.00863706
-0.00639995
-0.00368218
-0.000475198
0.0032151
0.00736575
0.0119349
0.0168604
0.0220591
0.0274274
0.0328432
0.0381698
0.043262
0.0479738
0.0521687
0.0557306
0.0585751
0.0606582
0.0619825
0.0625971
0.0625926
0.0620888
0.0612211
0.0601308
0.0589464
0.0576883
0.0563323
0.00126355
0.00106615
0.000896603
0.000741566
0.000588661
0.000438451
0.000290923
0.000144776
-1.45424e-06
-0.000149206
-0.000299864
-0.000454689
-0.000614754
-0.000780932
-0.000953889
-0.00113411
-0.00132193
-0.00151759
-0.00172128
-0.00193322
-0.0021537
-0.00238316
-0.00262226
-0.00287193
-0.00313346
-0.00340853
-0.00369925
-0.00400825
-0.00433863
-0.004694
-0.00507844
-0.00549641
-0.00595258
-0.00645167
-0.00699812
-0.00759573
-0.00824718
-0.00895347
-0.00971334
-0.0105225
-0.0113731
-0.0122527
-0.0131443
-0.0140254
-0.0148677
-0.0156378
-0.0162965
-0.0168004
-0.0171019
-0.017151
-0.0168965
-0.0162878
-0.0152766
-0.0138195
-0.0118793
-0.00942837
-0.00645047
-0.00294306
0.00107988
0.00558584
0.0105217
0.0158125
0.0213606
0.0270468
0.0327328
0.0382655
0.043485
0.0482336
0.0523683
0.0557733
0.0583723
0.0601382
0.0610969
0.0613255
0.0609421
0.060091
0.0589326
0.0576194
0.0561796
0.0545913
0.00150425
0.00125955
0.00105767
0.000880648
0.000711478
0.000549937
0.000395261
0.000245238
9.76227e-05
-4.96506e-05
-0.000198457
-0.000350423
-0.000506889
-0.000668907
-0.00083726
-0.00101251
-0.00119507
-0.00138524
-0.00158331
-0.00178964
-0.00200474
-0.00222936
-0.00246458
-0.00271187
-0.0029732
-0.00325111
-0.00354877
-0.00386999
-0.00421933
-0.004602
-0.00502387
-0.00549134
-0.00601118
-0.0065902
-0.00723497
-0.00795129
-0.00874365
-0.0096146
-0.010564
-0.0115881
-0.0126791
-0.0138241
-0.0150049
-0.0161972
-0.0173705
-0.0184884
-0.0195088
-0.0203848
-0.0210651
-0.0214961
-0.0216224
-0.0213891
-0.0207435
-0.0196366
-0.0180259
-0.0158765
-0.0131646
-0.00987885
-0.00602325
-0.00161965
0.0032899
0.00864097
0.0143452
0.0202896
0.0263376
0.0323321
0.0381011
0.0434669
0.0482579
0.0523232
0.0555475
0.0578659
0.0592725
0.0598232
0.0596287
0.0588404
0.0576392
0.0562057
0.0545793
0.052743
0.00173601
0.00144115
0.00120508
0.00100485
0.000818482
0.000644846
0.000482333
0.000327738
0.000177985
3.03578e-05
-0.000117509
-0.000267597
-0.000421494
-0.000580414
-0.000745243
-0.000916619
-0.00109501
-0.00128082
-0.00147444
-0.00167645
-0.00188762
-0.00210908
-0.00234242
-0.00258976
-0.00285389
-0.00313834
-0.00344745
-0.00378643
-0.0041614
-0.00457935
-0.00504807
-0.00557603
-0.0061721
-0.00684527
-0.00760417
-0.00845649
-0.00940838
-0.0104636
-0.0116229
-0.0128828
-0.0142351
-0.0156662
-0.0171562
-0.018679
-0.0202016
-0.021685
-0.023084
-0.0243486
-0.0254244
-0.0262542
-0.0267795
-0.0269416
-0.0266836
-0.0259522
-0.0246992
-0.0228837
-0.020474
-0.0174499
-0.0138051
-0.00954995
-0.00471384
0.000651621
0.00647021
0.012639
0.0190278
0.0254795
0.0318147
0.0378383
0.0433511
0.0481646
0.0521199
0.0551056
0.0570738
0.0580492
0.0581271
0.0574614
0.0562534
0.0547148
0.0528992
0.050797
0.00194944
0.0016017
0.00132974
0.00110529
0.000901023
0.000714754
0.000543926
0.000384252
0.000231773
8.3116e-05
-6.45699e-05
-0.000213604
-0.000365791
-0.000522479
-0.000684638
-0.000852961
-0.00102798
-0.00121019
-0.00140016
-0.00159867
-0.00180684
-0.00202625
-0.00225909
-0.00250822
-0.00277737
-0.00307118
-0.0033953
-0.00375645
-0.00416246
-0.00462219
-0.00514544
-0.00574278
-0.00642522
-0.00720385
-0.00808924
-0.00909084
-0.0102162
-0.01147
-0.0128536
-0.0143633
-0.0159905
-0.0177203
-0.0195311
-0.0213949
-0.0232762
-0.0251334
-0.0269188
-0.0285793
-0.030058
-0.0312949
-0.0322286
-0.0327974
-0.0329412
-0.0326025
-0.0317286
-0.0302729
-0.0281965
-0.025471
-0.0220798
-0.0180212
-0.0133115
-0.00798776
-0.00211144
0.00422826
0.0109119
0.0177884
0.0246763
0.0313684
0.0376415
0.0432706
0.0480493
0.0518128
0.0544607
0.0559742
0.0564219
0.0559526
0.054785
0.0531639
0.0511599
0.0487733
0.00213447
0.00173114
0.0014217
0.0011722
0.000949515
0.000750277
0.000570859
0.000405801
0.000250222
0.000100078
-4.79528e-05
-0.000196495
-0.000347536
-0.000502523
-0.000662475
-0.000828127
-0.00100007
-0.00117891
-0.00136538
-0.00156054
-0.00176588
-0.00198353
-0.00221633
-0.00246802
-0.00274333
-0.00304812
-0.00338947
-0.00377572
-0.00421647
-0.0047225
-0.00530569
-0.00597868
-0.00675457
-0.00764643
-0.00866661
-0.00982607
-0.0111335
-0.0125943
-0.0142099
-0.0159764
-0.0178842
-0.0199172
-0.022052
-0.0242583
-0.0264986
-0.0287289
-0.0308989
-0.0329533
-0.0348329
-0.0364754
-0.0378172
-0.0387943
-0.0393437
-0.0394052
-0.0389219
-0.0378425
-0.0361221
-0.0337244
-0.0306237
-0.026807
-0.0222769
-0.0170555
-0.0111878
-0.0047463
0.00216483
0.00940621
0.0168014
0.0241386
0.0311767
0.0376583
0.0433299
0.0479682
0.0514102
0.0535804
0.0545064
0.0543201
0.053252
0.0515795
0.0493925
0.0467048
0.00228025
0.00181854
0.0014701
0.00119481
0.000953367
0.000741025
0.000552963
0.000382465
0.000223683
7.18971e-05
-7.66608e-05
-0.000224883
-0.000374896
-0.000528204
-0.000685846
-0.000848571
-0.00101703
-0.00119192
-0.00137421
-0.00156523
-0.00176695
-0.00198205
-0.00221414
-0.00246788
-0.00274913
-0.00306505
-0.00342422
-0.00383664
-0.00431377
-0.00486833
-0.00551422
-0.00626611
-0.00713908
-0.008148
-0.00930681
-0.0106277
-0.0121203
-0.0137903
-0.015639
-0.0176621
-0.0198488
-0.0221815
-0.024635
-0.0271771
-0.0297681
-0.0323617
-0.0349056
-0.0373427
-0.0396116
-0.0416486
-0.0433881
-0.0447645
-0.0457129
-0.0461706
-0.0460779
-0.0453797
-0.0440262
-0.0419749
-0.0391917
-0.0356536
-0.0313509
-0.0262905
-0.0205006
-0.014035
-0.00697917
0.00054463
0.00837235
0.016296
0.0240658
0.0313996
0.0380008
0.0435867
0.0479242
0.0508674
0.0523864
0.0525812
0.0516833
0.0500001
0.0476414
0.044639
0.00237505
0.00185202
0.00146299
0.00116129
0.000900908
0.000675544
0.000479057
0.000303378
0.000141654
-1.15094e-05
-0.000160296
-0.000307822
-0.000456304
-0.000607259
-0.000761707
-0.000920397
-0.00108402
-0.00125341
-0.00142974
-0.00161471
-0.00181076
-0.00202124
-0.00225056
-0.0025044
-0.00278979
-0.00311527
-0.00349098
-0.00392863
-0.00444151
-0.00504428
-0.00575277
-0.00658362
-0.00755368
-0.00867945
-0.00997621
-0.0114572
-0.0131324
-0.015008
-0.0170847
-0.0193573
-0.0218141
-0.0244356
-0.0271952
-0.0300585
-0.0329838
-0.0359231
-0.0388221
-0.041622
-0.0442602
-0.0466712
-0.0487886
-0.0505453
-0.0518751
-0.0527138
-0.0529998
-0.0526751
-0.0516866
-0.0499868
-0.0475353
-0.0443005
-0.0402617
-0.0354126
-0.0297648
-0.0233532
-0.0162422
-0.00853283
-0.000370295
0.0080503
0.0164812
0.0246262
0.0321544
0.0387274
0.0440382
0.0478594
0.0500863
0.0507675
0.0501213
0.0484778
0.045966
0.0426397
0.00240618
0.00181859
0.00138731
0.00105862
0.000779289
0.00054125
0.000336898
0.000156716
-7.19705e-06
-0.000160902
-0.000308967
-0.000454683
-0.000600306
-0.000747321
-0.000896701
-0.00104917
-0.00120547
-0.00136657
-0.00153389
-0.00170954
-0.00189648
-0.00209877
-0.00232173
-0.00257207
-0.00285809
-0.00318975
-0.00357875
-0.00403854
-0.00458419
-0.00523225
-0.00600041
-0.00690706
-0.00797069
-0.00920918
-0.0106389
-0.0122738
-0.0141243
-0.0161962
-0.0184899
-0.0209992
-0.0237109
-0.0266043
-0.0296507
-0.0328139
-0.0360507
-0.0393111
-0.0425393
-0.0456751
-0.0486547
-0.0514116
-0.0538785
-0.0559875
-0.0576717
-0.058866
-0.0595076
-0.059537
-0.0588987
-0.0575419
-0.0554217
-0.0524998
-0.0487472
-0.0441458
-0.0386926
-0.0324044
-0.0253245
-0.0175303
-0.00914297
-0.00033685
0.00865328
0.0175299
0.0259405
0.0334998
0.0398293
0.0446125
0.0476538
0.0489296
0.0486248
0.0470809
0.0444424
0.0407892
0.00235981
0.00170396
0.00122861
0.000872425
0.000574345
0.000324324
0.000113127
-7.03194e-05
-0.000235006
-0.000387657
-0.00053319
-0.000675025
-0.000815411
-0.000955761
-0.00109697
-0.00123975
-0.00138487
-0.00153347
-0.00168726
-0.00184878
-0.00202161
-0.00221057
-0.00242192
-0.00266349
-0.00294487
-0.00327746
-0.00367456
-0.0041513
-0.0047245
-0.00541249
-0.00623467
-0.00721101
-0.00836144
-0.00970499
-0.0112589
-0.0130375
-0.0150513
-0.0173058
-0.0198007
-0.0225287
-0.0254752
-0.0286179
-0.0319267
-0.0353635
-0.0388835
-0.042435
-0.045961
-0.0494001
-0.0526875
-0.0557559
-0.0585375
-0.0609639
-0.062968
-0.064484
-0.065449
-0.0658027
-0.0654883
-0.0644534
-0.0626499
-0.0600353
-0.0565742
-0.0522394
-0.0470161
-0.0409051
-0.0339296
-0.0261435
-0.0176414
-0.00857081
0.000856174
0.010354
0.0195634
0.0280662
0.0354209
0.0412208
0.0451667
0.0471411
0.0472727
0.0458968
0.0431662
0.0391894
0.00222083
0.00149238
0.000970878
0.000586763
0.000270423
9.5751e-06
-0.000206824
-0.000391534
-0.000554695
-0.000703698
-0.000843784
-0.000978462
-0.00110993
-0.00123951
-0.00136801
-0.0014961
-0.00162464
-0.00175495
-0.00188909
-0.00203008
-0.00218217
-0.00235101
-0.00254385
-0.0027697
-0.00303947
-0.00336602
-0.0037642
-0.00425079
-0.0048443
-0.00556466
-0.00643284
-0.00747023
-0.00869792
-0.0101359
-0.0118019
-0.0137105
-0.0158722
-0.0182918
-0.0209683
-0.0238931
-0.0270505
-0.0304164
-0.0339592
-0.0376393
-0.0414103
-0.0452193
-0.049008
-0.0527139
-0.0562715
-0.059613
-0.06267
-0.0653742
-0.0676582
-0.0694564
-0.0707058
-0.0713462
-0.0713206
-0.0705756
-0.0690618
-0.0667343
-0.0635532
-0.0594855
-0.0545068
-0.0486055
-0.0417875
-0.0340847
-0.0255651
-0.0163465
-0.0066113
0.00337862
0.0132732
0.0226385
0.0309845
0.0378203
0.0427366
0.0455033
0.0461669
0.045034
0.0422538
0.0379642
0.00197255
0.00116629
0.000596233
0.000183847
-0.000149858
-0.000419723
-0.000638826
-0.000821777
-0.000979948
-0.00112142
-0.00125175
-0.00137451
-0.00149183
-0.00160491
-0.00171449
-0.00182122
-0.00192607
-0.00203061
-0.00213728
-0.00224968
-0.00237278
-0.00251311
-0.00267899
-0.00288064
-0.0031303
-0.0034423
-0.003833
-0.00432076
-0.00492562
-0.00566904
-0.00657335
-0.00766111
-0.00895439
-0.0104738
-0.0122375
-0.01426
-0.0165515
-0.0191161
-0.0219519
-0.0250491
-0.0283906
-0.031951
-0.0356971
-0.0395879
-0.0435756
-0.0476062
-0.0516203
-0.0555545
-0.0593427
-0.0629167
-0.0662078
-0.0691475
-0.0716688
-0.0737062
-0.0751971
-0.0760816
-0.0763031
-0.0758083
-0.0745474
-0.0724742
-0.0695469
-0.0657285
-0.0609884
-0.0553056
-0.0486726
-0.0411027
-0.0326398
-0.0233719
-0.013448
-0.00309797
0.00735146
0.0174694
0.0267359
0.0345898
0.040513
0.0441485
0.0454355
0.0446248
0.0418446
0.03726
0.00159638
0.000705916
8.44761e-05
-0.000356332
-0.000705918
-0.000982069
-0.0012002
-0.00137699
-0.00152518
-0.0016536
-0.00176813
-0.00187241
-0.0019685
-0.00205752
-0.00214011
-0.00221697
-0.00228923
-0.00235876
-0.00242848
-0.00250262
-0.00258694
-0.00268894
-0.00281805
-0.00298571
-0.00320552
-0.00349324
-0.00386671
-0.00434575
-0.00495185
-0.00570776
-0.006637
-0.0077631
-0.00910884
-0.0106953
-0.0125406
-0.0146593
-0.0170609
-0.0197489
-0.0227201
-0.0259638
-0.0294614
-0.0331864
-0.0371039
-0.0411719
-0.0453413
-0.0495569
-0.0537586
-0.0578823
-0.0618612
-0.0656268
-0.0691102
-0.072243
-0.0749583
-0.0771909
-0.0788787
-0.0799624
-0.0803859
-0.0800963
-0.0790443
-0.0771835
-0.0744712
-0.0708685
-0.0663414
-0.0608625
-0.0544151
-0.0469981
-0.0386353
-0.0293879
-0.019372
-0.00878063
0.00209332
0.012839
0.022928
0.0317482
0.0386829
0.0432421
0.045235
0.0448271
0.0421026
0.0372477
0.00107138
8.8716e-05
-0.000587462
-0.00105652
-0.00141962
-0.00169801
-0.00190986
-0.00207426
-0.00220549
-0.00231327
-0.00240384
-0.00248096
-0.00254665
-0.00260194
-0.00264746
-0.00268402
-0.00271296
-0.00273653
-0.00275822
-0.00278297
-0.0028174
-0.00287004
-0.00295146
-0.00307438
-0.00325374
-0.00350666
-0.00385242
-0.00431217
-0.00490868
-0.00566586
-0.00660817
-0.0077599
-0.00914428
-0.0107826
-0.0126929
-0.0148894
-0.0173808
-0.0201698
-0.0232523
-0.0266162
-0.0302419
-0.0341013
-0.0381587
-0.0423706
-0.046687
-0.0510519
-0.0554043
-0.0596795
-0.0638103
-0.0677279
-0.0713631
-0.0746477
-0.0775147
-0.0798995
-0.08174
-0.0829776
-0.0835567
-0.083425
-0.0825336
-0.0808367
-0.0782915
-0.0748585
-0.0705019
-0.0651913
-0.0589039
-0.0516291
-0.0433757
-0.0341832
-0.0241379
-0.0133963
-0.00221154
0.00903892
0.0198387
0.0295481
0.0374697
0.0429837
0.0457525
0.0458263
0.0432175
0.0381229
0.000373542
-0.000711418
-0.00144631
-0.00194288
-0.00231578
-0.0025905
-0.00278852
-0.00293182
-0.00303657
-0.00311352
-0.00316944
-0.00320823
-0.00323195
-0.0032416
-0.00323788
-0.00322175
-0.00319486
-0.00315995
-0.00312112
-0.00308412
-0.00305651
-0.00304789
-0.00307003
-0.0031369
-0.00326476
-0.00347207
-0.0037794
-0.00420914
-0.00478516
-0.00553233
-0.00647583
-0.00764047
-0.00904973
-0.0107248
-0.0126836
-0.0149396
-0.0175008
-0.0203691
-0.0235391
-0.0269977
-0.0307241
-0.034689
-0.0388556
-0.0431796
-0.04761
-0.05209
-0.056558
-0.0609489
-0.0651949
-0.0692271
-0.0729761
-0.0763736
-0.0793524
-0.0818482
-0.0837992
-0.0851467
-0.0858356
-0.0858139
-0.0850332
-0.0834479
-0.0810156
-0.0776968
-0.0734554
-0.0682597
-0.062084
-0.0549121
-0.0467433
-0.0376012
-0.0275487
-0.0167092
-0.00529569
0.00635575
0.0177577
0.0282667
0.0371285
0.0436056
0.0472059
0.0478365
0.0454064
0.0401069
-0.000525081
-0.00172528
-0.00252356
-0.00304592
-0.0034229
-0.0036853
-0.00385882
-0.00396904
-0.00403447
-0.00406721
-0.00407469
-0.00406113
-0.00402868
-0.0039784
-0.00391112
-0.00382804
-0.00373122
-0.00362394
-0.00351101
-0.00339904
-0.00329661
-0.00321443
-0.00316545
-0.00316491
-0.00323033
-0.00338143
-0.00363995
-0.00402936
-0.00457448
-0.00530088
-0.0062343
-0.00739979
-0.00882084
-0.0105184
-0.0125099
-0.0148082
-0.0174203
-0.0203472
-0.0235823
-0.0271115
-0.0309128
-0.0349561
-0.0392034
-0.0436097
-0.0481233
-0.0526867
-0.0572379
-0.0617113
-0.0660388
-0.0701512
-0.0739789
-0.0774533
-0.0805072
-0.0830759
-0.0850975
-0.0865133
-0.0872679
-0.0873094
-0.0865892
-0.0850617
-0.0826846
-0.0794186
-0.0752277
-0.0700799
-0.0639488
-0.056816
-0.0486756
-0.0395419
-0.029461
-0.0185306
-0.00692737
0.005056
0.0169722
0.028195
0.0379394
0.0453708
0.0498442
0.0511019
0.0489152
0.043448
-0.00165772
-0.00298993
-0.003857
-0.00440172
-0.00477393
-0.00501141
-0.00514542
-0.00520615
-0.00521516
-0.0051863
-0.00512795
-0.00504476
-0.00493907
-0.00481211
-0.00466489
-0.00449894
-0.00431675
-0.00412222
-0.00392095
-0.00372045
-0.00353032
-0.00336239
-0.00323079
-0.00315198
-0.00314467
-0.00322973
-0.00342994
-0.00376969
-0.00427451
-0.00497052
-0.00588372
-0.00703922
-0.00846029
-0.0101675
-0.0121775
-0.0145022
-0.017148
-0.0201146
-0.0233944
-0.0269722
-0.030825
-0.0349217
-0.0392238
-0.0436853
-0.048254
-0.0528721
-0.057477
-0.0620028
-0.0663813
-0.0705427
-0.0744173
-0.0779361
-0.0810314
-0.0836381
-0.0856938
-0.087139
-0.0879178
-0.0879772
-0.0872688
-0.0857452
-0.0833643
-0.0800863
-0.0758751
-0.0706988
-0.0645312
-0.0573538
-0.0491594
-0.0399578
-0.029786
-0.0187239
-0.00691966
0.00537377
0.0177534
0.0296258
0.0401998
0.048569
0.0539475
0.0558985
0.0540207
0.0484229
-0.00306485
-0.0045511
-0.00549289
-0.0060536
-0.00640736
-0.00660151
-0.00667486
-0.00666374
-0.00659373
-0.00648097
-0.0063351
-0.00616135
-0.00596235
-0.00573953
-0.00549413
-0.005228
-0.00494413
-0.00464704
-0.0043431
-0.00404073
-0.00375054
-0.00348545
-0.00326071
-0.00309391
-0.00300485
-0.0030154
-0.00314925
-0.00343149
-0.00388818
-0.00454574
-0.00543023
-0.00656656
-0.00797761
-0.00968323
-0.0116994
-0.014037
-0.0167013
-0.0196909
-0.0229972
-0.0266041
-0.0304875
-0.0346157
-0.0389492
-0.0434418
-0.0480407
-0.0526877
-0.05732
-0.0618715
-0.0662735
-0.0704562
-0.0743492
-0.077883
-0.0809895
-0.0836025
-0.0856586
-0.0870974
-0.0878615
-0.0878967
-0.0871522
-0.0855804
-0.083137
-0.0797811
-0.0754758
-0.0701888
-0.0638943
-0.0565743
-0.0482225
-0.0388485
-0.0284859
-0.0172052
-0.00513565
0.00750145
0.0203451
0.0328424
0.0442156
0.0535131
0.0598267
0.0625367
0.0610352
0.0553408
-0.00479709
-0.00646657
-0.00748909
-0.00805434
-0.00836834
-0.00849213
-0.00847505
-0.00836173
-0.008183
-0.00795801
-0.00769792
-0.00740868
-0.00709323
-0.00675312
-0.00638978
-0.00600534
-0.00560319
-0.00518844
-0.00476815
-0.00435157
-0.00395025
-0.00357809
-0.00325137
-0.00298867
-0.00281073
-0.00274028
-0.00280169
-0.00302057
-0.0034233
-0.00403635
-0.00488564
-0.00599568
-0.0073887
-0.00908377
-0.0110958
-0.0134348
-0.0161048
-0.0191033
-0.0224206
-0.0260397
-0.0299356
-0.0340759
-0.0384207
-0.0429231
-0.0475302
-0.0521836
-0.0568201
-0.0613736
-0.065775
-0.0699541
-0.0738401
-0.0773628
-0.080453
-0.0830436
-0.0850696
-0.0864689
-0.0871822
-0.087153
-0.0863283
-0.0846578
-0.0820948
-0.0785959
-0.0741223
-0.0686403
-0.0621233
-0.0545539
-0.0459269
-0.0362539
-0.0255696
-0.0139422
-0.00149126
0.0115828
0.0249531
0.038107
0.0502922
0.0605338
0.0678246
0.0713661
0.070313
0.0645501
-0.00691976
-0.00881159
-0.00991956
-0.010469
-0.01071
-0.0107235
-0.0105741
-0.0103174
-0.00999125
-0.00961836
-0.00921164
-0.00877772
-0.00831965
-0.00783894
-0.00733698
-0.00681596
-0.00627949
-0.00573306
-0.00518428
-0.00464305
-0.00412169
-0.00363492
-0.00319985
-0.00283588
-0.00256452
-0.00240912
-0.00239453
-0.00254667
-0.002892
-0.00345685
-0.00426676
-0.00534562
-0.00671489
-0.00839266
-0.0103928
-0.012724
-0.0153893
-0.0183849
-0.0217003
-0.0253173
-0.0292104
-0.0333463
-0.0376849
-0.0421789
-0.0467751
-0.051415
-0.0560355
-0.06057
-0.0649493
-0.0691029
-0.0729592
-0.0764472
-0.0794966
-0.0820387
-0.0840067
-0.0853363
-0.0859654
-0.0858349
-0.0848883
-0.0830717
-0.0803348
-0.0766306
-0.0719166
-0.0661561
-0.0593204
-0.0513908
-0.0423628
-0.03225
-0.0210899
-0.00895316
0.00404216
0.0177067
0.0317353
0.0456493
0.0587241
0.0699755
0.0783172
0.0827836
0.0822629
0.0764508
-0.00952036
-0.0116871
-0.0128809
-0.0133788
-0.0134942
-0.0133387
-0.0129978
-0.0125423
-0.0120185
-0.0114533
-0.0108612
-0.0102491
-0.0096196
-0.00897376
-0.00831242
-0.00763741
-0.00695219
-0.00626227
-0.00557549
-0.00490213
-0.00425498
-0.00364934
-0.00310291
-0.00263565
-0.00226958
-0.00202845
-0.00193736
-0.0020223
-0.00230957
-0.00282516
-0.00359402
-0.00463927
-0.00598141
-0.00763743
-0.00961999
-0.0119367
-0.0145891
-0.0175726
-0.0208754
-0.0244786
-0.0283559
-0.0324735
-0.0367909
-0.0412607
-0.0458296
-0.0504389
-0.0550254
-0.0595225
-0.0638608
-0.0679692
-0.0717755
-0.0752076
-0.0781939
-0.0806639
-0.0825485
-0.0837808
-0.0842955
-0.0840299
-0.0829231
-0.080917
-0.0779563
-0.0739887
-0.0689668
-0.0628488
-0.0556016
-0.0472031
-0.0376469
-0.0269468
-0.0151425
-0.00230872
0.0114332
0.0258996
0.0407902
0.0556521
0.069782
0.0821885
0.0917174
0.0972463
0.0973681
0.0915176
-0.0127212
-0.0152333
-0.0165021
-0.0168853
-0.0167923
-0.0163804
-0.0157651
-0.0150365
-0.0142508
-0.0134388
-0.0126158
-0.011788
-0.0109565
-0.0101209
-0.00928065
-0.0084365
-0.0075911
-0.00674946
-0.00591914
-0.00511035
-0.004336
-0.00361158
-0.00295506
-0.00238665
-0.00192861
-0.00160479
-0.00144028
-0.0014609
-0.00169259
-0.00216076
-0.0028896
-0.00390133
-0.00521534
-0.00684743
-0.00880904
-0.0111064
-0.0137401
-0.0167042
-0.0199859
-0.0235657
-0.0274164
-0.031504
-0.0357875
-0.0402196
-0.0447467
-0.0493103
-0.0538472
-0.0582907
-0.062571
-0.0666166
-0.0703546
-0.0737117
-0.0766148
-0.0789914
-0.0807699
-0.0818801
-0.0822534
-0.0818224
-0.0805217
-0.0782877
-0.0750589
-0.0707768
-0.0653869
-0.0588404
-0.0510972
-0.0421288
-0.0319233
-0.0204907
-0.00786971
0.00586408
0.0205868
0.0361088
0.0521392
0.0682318
0.0836939
0.0975181
0.108477
0.115291
0.11622
0.110341
-0.0167024
-0.0196511
-0.0209583
-0.0211158
-0.0206827
-0.0198855
-0.0188802
-0.01778
-0.0166512
-0.015527
-0.0144214
-0.0133375
-0.0122733
-0.011225
-0.0101895
-0.0091652
-0.00815307
-0.00715677
-0.00618291
-0.00524106
-0.0043437
-0.00350609
-0.00274605
-0.0020837
-0.00154116
-0.00114213
-0.000911399
-0.000874358
-0.00105636
-0.00148208
-0.00217481
-0.00315568
-0.00444293
-0.00605112
-0.00799039
-0.0102658
-0.0128765
-0.0158158
-0.0190698
-0.0226182
-0.0264335
-0.0304811
-0.0347199
-0.0391024
-0.0435753
-0.0480801
-0.0525535
-0.0569287
-0.061136
-0.0651031
-0.0687565
-0.0720216
-0.0748237
-0.0770881
-0.0787404
-0.0797072
-0.0799157
-0.079294
-0.0777712
-0.0752775
-0.0717445
-0.0671058
-0.0612987
-0.0542651
-0.0459552
-0.0363303
-0.0253687
-0.013071
0.000531677
0.0153691
0.03132
0.048195
0.0657057
0.0834106
0.100617
0.116284
0.129087
0.137559
0.139569
0.133701
-0.0217442
-0.0252395
-0.0264902
-0.0262259
-0.0252442
-0.0238726
-0.0223181
-0.0207184
-0.0191469
-0.0176348
-0.0161903
-0.0148098
-0.0134847
-0.0122056
-0.0109645
-0.00975606
-0.00857799
-0.00743161
-0.0063217
-0.00525646
-0.00424735
-0.00330885
-0.00245819
-0.00171499
-0.00110091
-0.000639145
-0.000353931
-0.000270001
-0.000411928
-0.00080348
-0.00146691
-0.00242221
-0.00368642
-0.00527282
-0.0071903
-0.00944267
-0.0120281
-0.0149387
-0.0181599
-0.0216706
-0.0254429
-0.0294421
-0.0336269
-0.0379498
-0.0423576
-0.0467918
-0.0511896
-0.055484
-0.059605
-0.06348
-0.0670346
-0.0701931
-0.072879
-0.0750153
-0.0765251
-0.0773313
-0.0773569
-0.0765251
-0.0747593
-0.0719828
-0.0681198
-0.0630953
-0.0568366
-0.0492747
-0.040347
-0.0300014
-0.0182007
-0.00492939
0.00979805
0.0259275
0.0433523
0.0618958
0.0812812
0.101077
0.120591
0.138742
0.154064
0.16483
0.168404
0.162702
-0.0283126
-0.0324562
-0.0334292
-0.0323976
-0.0305393
-0.02832
-0.0260017
-0.0237413
-0.0216098
-0.0196272
-0.0177879
-0.0160753
-0.0144692
-0.0129509
-0.0115045
-0.0101185
-0.0087859
-0.00750432
-0.00627566
-0.00510592
-0.00400487
-0.00298569
-0.00206455
-0.0012602
-0.000593485
-8.68278e-05
0.000236329
0.000352121
0.000236909
-0.000132049
-0.000775899
-0.00171347
-0.00296057
-0.00452927
-0.00642727
-0.00865725
-0.0112164
-0.0140958
-0.0172805
-0.0207486
-0.024472
-0.0284158
-0.0325387
-0.0367935
-0.041127
-0.0454812
-0.0497932
-0.0539962
-0.05802
-0.0617917
-0.0652361
-0.0682765
-0.0708346
-0.0728314