/*--------------------------------*- C++ -*----------------------------------*\
  =========                 |
  \\      /  F ield         | OpenFOAM: The Open Source CFD Toolbox
   \\    /   O peration     | Website:  https://openfoam.org
    \\  /    A nd           | Version:  7
     \\/     M anipulation  |
\*---------------------------------------------------------------------------*/
FoamFile
{
    version     2.0;
    format      ascii;
    class       surfaceScalarField;
    location    "0.5";
    object      phi;
}
// * * * * * * * * * * * * * * * * * * * * * * * * * * * * * * * * * * * * * //

dimensions      [0 3 -1 0 0 0 0];

internalField   nonuniform List<scalar> 
6280
(
3.71911e-10
-3.72092e-10
1.26193e-09
-8.90001e-10
2.23676e-09
-9.74859e-10
3.01196e-09
-7.75159e-10
3.44712e-09
-4.3511e-10
3.49016e-09
-4.29995e-11
3.14092e-09
3.49238e-10
2.42804e-09
7.12873e-10
1.39323e-09
1.03484e-09
8.1426e-11
1.31183e-09
-1.4655e-09
1.54696e-09
-3.21255e-09
1.74706e-09
-5.13331e-09
1.92076e-09
-7.21077e-09
2.07745e-09
-9.4373e-09
2.22652e-09
-1.18141e-08
2.37682e-09
-1.43506e-08
2.53641e-09
-1.7063e-08
2.71245e-09
-1.99744e-08
2.91131e-09
-2.31129e-08
3.13856e-09
-2.6512e-08
3.39916e-09
-3.02096e-08
3.69758e-09
-3.42476e-08
4.038e-09
-3.8672e-08
4.4244e-09
-4.35327e-08
4.86067e-09
-4.88834e-08
5.35063e-09
-5.47815e-08
5.8981e-09
-6.12883e-08
6.50678e-09
-6.84685e-08
7.18027e-09
-7.63904e-08
7.92186e-09
-8.51247e-08
8.73436e-09
-9.47447e-08
9.61993e-09
-1.05324e-07
1.05797e-08
-1.16938e-07
1.16134e-08
-1.29657e-07
1.27193e-08
-1.4355e-07
1.38932e-08
-1.58679e-07
1.51285e-08
-1.75094e-07
1.64155e-08
-1.92835e-07
1.77408e-08
-2.11922e-07
1.90869e-08
-2.32354e-07
2.04317e-08
-2.54102e-07
2.17479e-08
-2.77105e-07
2.30029e-08
-3.01263e-07
2.41584e-08
-3.26433e-07
2.517e-08
-3.52421e-07
2.59883e-08
-3.7898e-07
2.65583e-08
-4.058e-07
2.68209e-08
-4.32514e-07
2.67137e-08
-4.58687e-07
2.6173e-08
-4.83823e-07
2.51361e-08
-5.07367e-07
2.35435e-08
-5.2871e-07
2.13431e-08
-5.47204e-07
1.84939e-08
-5.62174e-07
1.49706e-08
-5.72943e-07
1.07689e-08
-5.78852e-07
5.90903e-09
-5.79323e-07
4.70914e-10
-5.73794e-07
-5.52876e-09
-5.61913e-07
-1.18811e-08
-5.43458e-07
-1.84549e-08
-5.18421e-07
-2.5037e-08
-4.87038e-07
-3.13837e-08
-4.4981e-07
-3.72273e-08
-4.07522e-07
-4.22885e-08
-3.61227e-07
-4.62952e-08
-3.12223e-07
-4.90032e-08
-2.62005e-07
-5.02189e-08
-2.12183e-07
-4.98211e-08
-1.64406e-07
-4.77778e-08
-1.2025e-07
-4.41558e-08
-8.11286e-08
-3.91213e-08
-4.8199e-08
-3.29296e-08
-2.22911e-08
-2.59079e-08
-3.85221e-09
-1.8439e-08
7.11052e-09
-1.09627e-08
1.10969e-08
-3.98639e-09
9.2846e-09
1.81228e-09
4.07953e-09
5.20507e-09
4.07955e-09
9.04757e-10
-1.27681e-09
2.47934e-09
-2.46458e-09
3.99749e-09
-2.49307e-09
4.97913e-09
-1.75686e-09
5.14035e-09
-5.96316e-10
4.35119e-09
7.4621e-10
2.58825e-09
2.1122e-09
-1.05232e-10
3.40636e-09
-3.65043e-09
4.58002e-09
-7.95567e-09
5.61704e-09
-1.29315e-08
6.52277e-09
-1.85009e-08
7.31645e-09
-2.46055e-08
8.02532e-09
-3.12084e-08
8.68036e-09
-3.82954e-08
9.31344e-09
-4.5874e-08
9.95543e-09
-5.39727e-08
1.06351e-08
-6.26389e-08
1.13786e-08
-7.19371e-08
1.22096e-08
-8.19474e-08
1.31488e-08
-9.27635e-08
1.42153e-08
-1.04492e-07
1.54259e-08
-1.17251e-07
1.67966e-08
-1.31168e-07
1.83421e-08
-1.46384e-07
2.00765e-08
-1.63047e-07
2.20133e-08
-1.81314e-07
2.41653e-08
-2.01352e-07
2.65445e-08
-2.23333e-07
2.91616e-08
-2.47437e-07
3.20256e-08
-2.73845e-07
3.51428e-08
-3.02741e-07
3.8516e-08
-3.34305e-07
4.21435e-08
-3.6871e-07
4.60178e-08
-4.06114e-07
5.01238e-08
-4.46659e-07
5.44378e-08
-4.90456e-07
5.89258e-08
-5.37582e-07
6.35416e-08
-5.88067e-07
6.82252e-08
-6.41881e-07
7.29017e-08
-6.98929e-07
7.74795e-08
-7.59031e-07
8.18496e-08
-8.21913e-07
8.58849e-08
-8.87195e-07
8.94404e-08
-9.54379e-07
9.23541e-08
-1.02284e-06
9.44485e-08
-1.09181e-06
9.55336e-08
-1.1604e-06
9.54108e-08
-1.22757e-06
9.38783e-08
-1.29213e-06
9.07378e-08
-1.3528e-06
8.58031e-08
-1.40817e-06
7.89095e-08
-1.45675e-06
6.99253e-08
-1.49702e-06
5.87641e-08
-1.52745e-06
4.53989e-08
-1.54655e-06
2.9876e-08
-1.55298e-06
1.23304e-08
-1.5455e-06
-7.00306e-09
-1.52322e-06
-2.78088e-08
-1.4855e-06
-4.95986e-08
-1.43215e-06
-7.18128e-08
-1.36341e-06
-9.37723e-08
-1.28009e-06
-1.14707e-07
-1.18353e-06
-1.33787e-07
-1.07566e-06
-1.50158e-07
-9.58955e-07
-1.62998e-07
-8.36385e-07
-1.71574e-07
-7.11299e-07
-1.75304e-07
-5.87296e-07
-1.73824e-07
-4.68042e-07
-1.67032e-07
-3.57074e-07
-1.55124e-07
-2.5759e-07
-1.38605e-07
-1.72252e-07
-1.18268e-07
-1.03e-07
-9.51597e-08
-5.08962e-08
-7.0543e-08
-1.59777e-08
-4.58813e-08
2.93185e-09
-2.28959e-08
8.50038e-09
-3.75625e-09
5.15321e-09
8.55225e-09
9.23269e-09
1.00912e-09
-2.28597e-09
2.5279e-09
-3.98327e-09
3.6767e-09
-3.64181e-09
3.90061e-09
-1.98076e-09
2.86702e-09
4.37236e-10
4.18494e-10
3.19473e-09
-3.47531e-09
6.00603e-09
-8.76196e-09
8.69305e-09
-1.53421e-08
1.11602e-08
-2.30976e-08
1.33726e-08
-3.19124e-08
1.53375e-08
-4.16863e-08
1.70904e-08
-5.23447e-08
1.86837e-08
-6.38428e-08
2.01784e-08
-7.61679e-08
2.16385e-08
-8.93394e-08
2.31269e-08
-1.03407e-07
2.47029e-08
-1.1845e-07
2.64211e-08
-1.34571e-07
2.83311e-08
-1.519e-07
3.04773e-08
-1.70585e-07
3.29001e-08
-1.90794e-07
3.56358e-08
-2.12716e-07
3.87179e-08
-2.36551e-07
4.21774e-08
-2.62518e-07
4.60433e-08
-2.90847e-07
5.03424e-08
-3.21781e-07
5.50997e-08
-3.55574e-07
6.03368e-08
-3.92484e-07
6.60721e-08
-4.32777e-07
7.23184e-08
-4.76716e-07
7.90818e-08
-5.2456e-07
8.63598e-08
-5.76554e-07
9.41381e-08
-6.32925e-07
1.02389e-07
-6.93868e-07
1.11067e-07
-7.59537e-07
1.20107e-07
-8.30032e-07
1.29421e-07
-9.05386e-07
1.38896e-07
-9.85548e-07
1.48386e-07
-1.07036e-06
1.57719e-07
-1.15957e-06
1.66685e-07
-1.25277e-06
1.75044e-07
-1.3494e-06
1.82519e-07
-1.44876e-06
1.88804e-07
-1.54997e-06
1.93563e-07
-1.65196e-06
1.96437e-07
-1.75348e-06
1.97052e-07
-1.8531e-06
1.9503e-07
-1.94922e-06
1.89995e-07
-2.04007e-06
1.81597e-07
-2.12379e-06
1.69519e-07
-2.19838e-06
1.53502e-07
-2.26182e-06
1.33361e-07
-2.31207e-06
1.09011e-07
-2.34715e-06
8.04846e-08
-2.36523e-06
4.79573e-08
-2.36468e-06
1.17756e-08
-2.34411e-06
-2.75721e-08
-2.30256e-06
-6.93564e-08
-2.23949e-06
-1.1267e-07
-2.15489e-06
-1.56412e-07
-2.04936e-06
-1.99303e-07
-1.92415e-06
-2.39913e-07
-1.78122e-06
-2.76717e-07
-1.62322e-06
-3.08158e-07
-1.45348e-06
-3.32739e-07
-1.27594e-06
-3.4912e-07
-1.09501e-06
-3.56231e-07
-9.15455e-07
-3.53379e-07
-7.42141e-07
-3.40346e-07
-5.79809e-07
-3.17456e-07
-4.32807e-07
-2.85606e-07
-3.04821e-07
-2.46254e-07
-1.98609e-07
-2.01372e-07
-1.15769e-07
-1.53383e-07
-5.65197e-08
-1.0513e-07
-1.94972e-08
-5.99185e-08
-1.55961e-09
-2.16938e-08
2.42851e-09
4.56413e-09
1.16612e-08
7.99256e-10
-3.08528e-09
1.69219e-09
-4.87624e-09
1.76735e-09
-3.71692e-09
4.65857e-10
-6.79223e-10
-2.5351e-09
3.43818e-09
-7.37957e-09
8.03917e-09
-1.40815e-08
1.27079e-08
-2.25697e-08
1.71812e-08
-3.27253e-08
2.13158e-08
-4.44115e-08
2.50588e-08
-5.74961e-08
2.8422e-08
-7.18672e-08
3.14615e-08
-8.74442e-08
3.42607e-08
-1.04184e-07
3.69178e-08
-1.22081e-07
3.95361e-08
-1.41173e-07
4.22184e-08
-1.61532e-07
4.50624e-08
-1.8327e-07
4.81583e-08
-2.06527e-07
5.15889e-08
-2.31479e-07
5.54286e-08
-2.58323e-07
5.97449e-08
-2.87286e-07
6.45987e-08
-3.18614e-07
7.00457e-08
-3.52574e-07
7.61368e-08
-3.89449e-07
8.29186e-08
-4.2954e-07
9.04332e-08
-4.73158e-07
9.87175e-08
-5.20623e-07
1.07802e-07
-5.72261e-07
1.1771e-07
-6.28394e-07
1.28452e-07
-6.89339e-07
1.40027e-07
-7.55395e-07
1.52415e-07
-8.26834e-07
1.65577e-07
-9.03891e-07
1.79446e-07
-9.86749e-07
1.93925e-07
-1.07552e-06
2.08882e-07
-1.17025e-06
2.24144e-07
-1.27085e-06
2.39497e-07
-1.37714e-06
2.54674e-07
-1.48878e-06
2.69363e-07
-1.60529e-06
2.83195e-07
-1.726e-06
2.95756e-07
-1.85006e-06
3.0658e-07
-1.97642e-06
3.15159e-07
-2.10381e-06
3.20954e-07
-2.23077e-06
3.234e-07
-2.35564e-06
3.21923e-07
-2.47657e-06
3.1596e-07
-2.59155e-06
3.04974e-07
-2.69843e-06
2.88481e-07
-2.79499e-06
2.6607e-07
-2.87892e-06
2.37432e-07
-2.94794e-06
2.02389e-07
-2.99985e-06
1.60916e-07
-3.03254e-06
1.13174e-07
-3.04411e-06
5.953e-08
-3.03297e-06
6.35936e-10
-2.99778e-06
-6.27624e-08
-2.93771e-06
-1.29426e-07
-2.85238e-06
-1.97995e-07
-2.742e-06
-2.66798e-07
-2.60738e-06
-3.33921e-07
-2.45005e-06
-3.97244e-07
-2.27225e-06
-4.54513e-07
-2.07699e-06
-5.03427e-07
-1.86797e-06
-5.41756e-07
-1.6496e-06
-5.67487e-07
-1.42686e-06
-5.78977e-07
-1.20511e-06
-5.7512e-07
-9.89965e-07
-5.55495e-07
-7.86935e-07
-5.20486e-07
-6.01189e-07
-4.71352e-07
-4.37209e-07
-4.10234e-07
-2.98474e-07
-3.40107e-07
-1.87163e-07
-2.64694e-07
-1.03902e-07
-1.88392e-07
-4.75544e-08
-1.16266e-07
-1.50934e-08
-5.41548e-08
-1.55748e-09
-8.9718e-09
1.01038e-08
3.88032e-10
-3.4733e-09
2.1241e-10
-4.70068e-09
-1.36116e-09
-2.14335e-09
-4.8318e-09
2.79142e-09
-1.0467e-08
9.07343e-09
-1.83626e-08
1.59347e-08
-2.84928e-08
2.28381e-08
-4.07546e-08
2.9443e-08
-5.5004e-08
3.55653e-08
-7.10857e-08
4.11405e-08
-8.88552e-08
4.61915e-08
-1.08195e-07
5.08012e-08
-1.29025e-07
5.50906e-08
-1.51308e-07
5.92012e-08
-1.75055e-07
6.32825e-08
-2.0032e-07
6.74833e-08
-2.27203e-07
7.19454e-08
-2.55845e-07
7.68008e-08
-2.86426e-07
8.21701e-08
-3.19161e-07
8.81629e-08
-3.54293e-07
9.48777e-08
-3.92098e-07
1.02404e-07
-4.32874e-07
1.10821e-07
-4.7694e-07
1.20203e-07
-5.24635e-07
1.30614e-07
-5.76313e-07
1.4211e-07
-6.32334e-07
1.54739e-07
-6.93069e-07
1.68536e-07
-7.5888e-07
1.83522e-07
-8.30126e-07
1.99697e-07
-9.07142e-07
2.17043e-07
-9.90233e-07
2.35507e-07
-1.07966e-06
2.55006e-07
-1.17563e-06
2.75413e-07
-1.27826e-06
2.96557e-07
-1.38759e-06
3.18209e-07
-1.50353e-06
3.40084e-07
-1.62586e-06
3.6183e-07
-1.75422e-06
3.83027e-07
-1.88804e-06
4.03189e-07
-2.02661e-06
4.21759e-07
-2.16897e-06
4.38117e-07
-2.31397e-06
4.51587e-07
-2.46026e-06
4.61448e-07
-2.60625e-06
4.66945e-07
-2.75017e-06
4.67316e-07
-2.89005e-06
4.61806e-07
-3.02379e-06
4.49693e-07
-3.14913e-06
4.3032e-07
-3.26377e-06
4.03118e-07
-3.36534e-06
3.67639e-07
-3.45149e-06
3.23585e-07
-3.51994e-06
2.70841e-07
-3.56853e-06
2.095e-07
-3.59525e-06
1.39896e-07
-3.59835e-06
6.26302e-08
-3.57632e-06
-2.13978e-08
-3.52807e-06
-1.11008e-07
-3.45285e-06
-2.04645e-07
-3.3504e-06
-3.00442e-07
-3.221e-06
-3.962e-07
-3.06551e-06
-4.89409e-07
-2.88546e-06
-5.77293e-07
-2.68309e-06
-6.56883e-07
-2.46139e-06
-7.25128e-07
-2.22411e-06
-7.79034e-07
-1.97576e-06
-8.15841e-07
-1.7215e-06
-8.3324e-07
-1.46703e-06
-8.29585e-07
-1.21841e-06
-8.04118e-07
-9.8174e-07
-7.57156e-07
-7.62881e-07
-6.90212e-07
-5.67064e-07
-6.0605e-07
-3.98531e-07
-5.08641e-07
-2.60172e-07
-4.03053e-07
-1.53242e-07
-2.95321e-07
-7.71574e-08
-1.92351e-07
-2.94129e-08
-1.01899e-07
-5.66348e-09
-3.27213e-08
4.44027e-09
-1.61072e-10
-3.31219e-09
-1.74566e-09
-3.11611e-09
-5.43832e-09
1.54925e-09
-1.16219e-08
8.97498e-09
-2.04674e-08
1.7919e-08
-3.1992e-08
2.74592e-08
-4.61076e-08
3.69537e-08
-6.26639e-08
4.59993e-08
-8.1483e-08
5.43844e-08
-1.02387e-07
6.20445e-08
-1.25219e-07
6.90232e-08
-1.49857e-07
7.54392e-08
-1.76224e-07
8.14582e-08
-2.04295e-07
8.72722e-08
-2.34095e-07
9.30825e-08
-2.65701e-07
9.90892e-08
-2.99239e-07
1.05483e-07
-3.3488e-07
1.12442e-07
-3.72837e-07
1.20127e-07
-4.13362e-07
1.28688e-07
-4.56739e-07
1.38255e-07
-5.03283e-07
1.48948e-07
-5.53334e-07
1.60872e-07
-6.07254e-07
1.74123e-07
-6.6542e-07
1.8878e-07
-7.28223e-07
2.04913e-07
-7.96057e-07
2.22573e-07
-8.69316e-07
2.41794e-07
-9.4838e-07
2.62586e-07
-1.03361e-06
2.84928e-07
-1.12533e-06
3.08766e-07
-1.22383e-06
3.34003e-07
-1.32931e-06
3.60488e-07
-1.44191e-06
3.88015e-07
-1.56166e-06
4.16308e-07
-1.68847e-06
4.45019e-07
-1.82211e-06
4.7372e-07
-1.96218e-06
5.01896e-07
-2.1081e-06
5.28949e-07
-2.2591e-06
5.54195e-07
-2.41421e-06
5.7687e-07
-2.57224e-06
5.96143e-07
-2.73177e-06
6.11122e-07
-2.89121e-06
6.20882e-07
-3.04874e-06
6.24479e-07
-3.20241e-06
6.20979e-07
-3.35009e-06
6.09488e-07
-3.48958e-06
5.89182e-07
-3.61859e-06
5.59336e-07
-3.73484e-06
5.1936e-07
-3.83602e-06
4.68827e-07
-3.91994e-06
4.07503e-07
-3.98448e-06
3.35379e-07
-4.02767e-06
2.52693e-07
-4.04774e-06
1.59964e-07
-4.04312e-06
5.80116e-08
-4.01251e-06
-5.20159e-08
-3.95489e-06
-1.68622e-07
-3.86961e-06
-2.89931e-07
-3.75636e-06
-4.13682e-07
-3.61534e-06
-5.37225e-07
-3.44722e-06
-6.5753e-07
-3.25329e-06
-7.71227e-07
-3.03549e-06
-8.74677e-07
-2.79654e-06
-9.64079e-07
-2.53994e-06
-1.03564e-06
-2.27001e-06
-1.08577e-06
-1.99189e-06
-1.11136e-06
-1.71141e-06
-1.11006e-06
-1.43494e-06
-1.08059e-06
-1.16911e-06
-1.02298e-06
-9.20475e-07
-9.38851e-07
-6.95084e-07
-8.31442e-07
-4.98073e-07
-7.05652e-07
-3.33237e-07
-5.67888e-07
-2.02697e-07
-4.25861e-07
-1.06677e-07
-2.88371e-07
-4.34571e-08
-1.65119e-07
-9.52332e-09
-6.6655e-08
-5.0831e-09
-8.10357e-10
-2.50182e-09
-4.07439e-09
1.47972e-10
-1.02733e-08
7.74818e-09
-1.96301e-08
1.83317e-08
-3.2183e-08
3.04719e-08
-4.78416e-08
4.31179e-08
-6.64339e-08
5.5546e-08
-8.77462e-08
6.73116e-08
-1.11556e-07
7.81939e-08
-1.37656e-07
8.81443e-08
-1.65873e-07
9.72404e-08
-1.96081e-07
1.05647e-07
-2.28207e-07
1.13585e-07
-2.62237e-07
1.21302e-07
-2.98212e-07
1.29058e-07
-3.36231e-07
1.37108e-07
-3.76445e-07
1.45696e-07
-4.19052e-07
1.55049e-07
-4.64296e-07
1.65372e-07
-5.1246e-07
1.76851e-07
-5.63859e-07
1.89654e-07
-6.1884e-07
2.03929e-07
-6.77774e-07
2.19807e-07
-7.41051e-07
2.37399e-07
-8.09072e-07
2.56802e-07
-8.82248e-07
2.78089e-07
-9.60985e-07
3.0131e-07
-1.04568e-06
3.26488e-07
-1.1367e-06
3.5361e-07
-1.2344e-06
3.82622e-07
-1.33905e-06
4.13417e-07
-1.45088e-06
4.45833e-07
-1.57003e-06
4.79635e-07
-1.69652e-06
5.14511e-07
-1.83028e-06
5.50063e-07
-1.97106e-06
5.85798e-07
-2.11846e-06
6.21121e-07
-2.2719e-06
6.55341e-07
-2.43062e-06
6.87662e-07
-2.59362e-06
7.17198e-07
-2.75973e-06
7.42978e-07
-2.92755e-06
7.63965e-07
-3.0955e-06
7.79078e-07
-3.26184e-06
7.87214e-07
-3.42464e-06
7.87279e-07
-3.58188e-06
7.78224e-07
-3.73146e-06
7.59069e-07
-3.87123e-06
7.28949e-07
-3.99903e-06
6.87133e-07
-4.11273e-06
6.33066e-07
-4.21029e-06
5.66387e-07
-4.28975e-06
4.86963e-07
-4.34928e-06
3.94904e-07
-4.38718e-06
2.90593e-07
-4.40192e-06
1.74705e-07
-4.39214e-06
4.82313e-08
-4.35666e-06
-8.7491e-08
-4.29453e-06
-2.30755e-07
-4.20501e-06
-3.79448e-07
-4.08766e-06
-5.31029e-07
-3.94238e-06
-6.82506e-07
-3.76948e-06
-8.30434e-07
-3.56978e-06
-9.7093e-07
-3.34472e-06
-1.09973e-06
-3.09648e-06
-1.21231e-06
-2.82809e-06
-1.30403e-06
-2.54349e-06
-1.37037e-06
-2.24757e-06
-1.40727e-06
-1.94617e-06
-1.41147e-06
-1.64588e-06
-1.38088e-06
-1.35383e-06
-1.31503e-06
-1.07733e-06
-1.21536e-06
-8.2338e-07
-1.08539e-06
-5.98209e-07
-9.30822e-07
-4.0675e-07
-7.59347e-07
-2.52237e-07
-5.80374e-07
-1.35939e-07
-4.04668e-07
-5.71027e-08
-2.43956e-07
-1.3123e-08
-1.10635e-07
-1.82061e-08
-1.54021e-09
-9.61637e-10
-6.70308e-09
5.31089e-09
-1.5734e-08
1.6779e-08
-2.86567e-08
3.12544e-08
-4.53452e-08
4.71604e-08
-6.55753e-08
6.33479e-08
-8.90695e-08
7.90402e-08
-1.15535e-07
9.37772e-08
-1.44693e-07
1.07352e-07
-1.76299e-07
1.1975e-07
-2.1016e-07
1.31101e-07
-2.46141e-07
1.41629e-07
-2.84173e-07
1.51616e-07
-3.2425e-07
1.61378e-07
-3.66429e-07
1.71237e-07
-4.10829e-07
1.81508e-07
-4.57623e-07
1.9249e-07
-5.07033e-07
2.04459e-07
-5.59328e-07
2.17666e-07
-6.14814e-07
2.32337e-07
-6.7383e-07
2.48671e-07
-7.36745e-07
2.66844e-07
-8.03946e-07
2.87009e-07
-8.7584e-07
3.09292e-07
-9.52835e-07
3.33798e-07
-1.03534e-06
3.60597e-07
-1.12376e-06
3.89731e-07
-1.21847e-06
4.21198e-07
-1.31981e-06
4.54952e-07
-1.42808e-06
4.90886e-07
-1.54349e-06
5.28831e-07
-1.6662e-06
5.68537e-07
-1.79623e-06
6.09667e-07
-1.9335e-06
6.51786e-07
-2.07779e-06
6.94352e-07
-2.22871e-06
7.36711e-07
-2.38568e-06
7.78095e-07
-2.54796e-06
8.17622e-07
-2.7146e-06
8.54303e-07
-2.88446e-06
8.87053e-07
-3.05619e-06
9.14715e-07
-3.2283e-06
9.36073e-07
-3.39911e-06
9.4989e-07
-3.56683e-06
9.54935e-07
-3.72957e-06
9.50019e-07
-3.88538e-06
9.34032e-07
-4.03229e-06
9.05976e-07
-4.16834e-06
8.64996e-07
-4.29162e-06
8.10413e-07
-4.40029e-06
7.41744e-07
-4.49263e-06
6.58726e-07
-4.567e-06
5.61331e-07
-4.62188e-06
4.49783e-07
-4.65586e-06
3.24575e-07
-4.66765e-06
1.86489e-07
-4.65603e-06
3.66159e-08
-4.61991e-06
-1.23608e-07
-4.55829e-06
-2.92374e-07
-4.4703e-06
-4.67448e-07
-4.35519e-06
-6.4613e-07
-4.21249e-06
-8.25213e-07
-4.04197e-06
-1.00095e-06
-3.84385e-06
-1.16905e-06
-3.61889e-06
-1.3247e-06
-3.36855e-06
-1.46266e-06
-3.09516e-06
-1.57741e-06
-2.80209e-06
-1.66345e-06
-2.49381e-06
-1.71555e-06
-2.17597e-06
-1.7293e-06
-1.8553e-06
-1.70155e-06
-1.53939e-06
-1.63094e-06
-1.23635e-06
-1.51839e-06
-9.54291e-07
-1.36745e-06
-7.00733e-07
-1.18438e-06
-4.82014e-07
-9.78066e-07
-3.02759e-07
-7.59629e-07
-1.65527e-07
-5.41901e-07
-7.06924e-08
-3.3879e-07
-1.66062e-08
-1.64721e-07
-3.48123e-08
-2.33751e-09
1.37585e-09
-9.588e-09
1.25614e-08
-2.17292e-08
2.89203e-08
-3.85561e-08
4.80813e-08
-5.97492e-08
6.83535e-08
-8.49258e-08
8.85245e-08
-1.13683e-07
1.07798e-07
-1.45634e-07
1.25728e-07
-1.80431e-07
1.42149e-07
-2.17785e-07
1.57104e-07
-2.57476e-07
1.70792e-07
-2.99357e-07
1.8351e-07
-3.43358e-07
1.95617e-07
-3.89479e-07
2.075e-07
-4.37793e-07
2.19551e-07
-4.88433e-07
2.32148e-07
-5.4159e-07
2.45647e-07
-5.97505e-07
2.60374e-07
-6.56464e-07
2.76625e-07
-7.18789e-07
2.94662e-07
-7.84835e-07
3.14716e-07
-8.54979e-07
3.36988e-07
-9.29615e-07
3.61645e-07
-1.00915e-06
3.88825e-07
-1.09398e-06
4.18631e-07
-1.18451e-06
4.51125e-07
-1.2811e-06
4.86326e-07
-1.38411e-06
5.242e-07
-1.4938e-06
5.64651e-07
-1.61043e-06
6.07509e-07
-1.73412e-06
6.52521e-07
-1.86492e-06
6.99339e-07
-2.00276e-06
7.47505e-07
-2.14742e-06
7.96447e-07
-2.29854e-06
8.45471e-07
-2.45558e-06
8.93755e-07
-2.61784e-06
9.40351e-07
-2.78441e-06
9.84195e-07
-2.95422e-06
1.02412e-06
-3.12602e-06
1.05886e-06
-3.29841e-06
1.0871e-06
-3.46982e-06
1.10749e-06
-3.63862e-06
1.11869e-06
-3.80307e-06
1.11938e-06
-3.96141e-06
1.10836e-06
-4.11187e-06
1.08449e-06
-4.25272e-06
1.04682e-06
-4.38228e-06
9.94558e-07
-4.49897e-06
9.27102e-07
-4.60129e-06
8.44071e-07
-4.68787e-06
7.45301e-07
-4.7574e-06
6.30863e-07
-4.80868e-06
5.01063e-07
-4.84056e-06
3.56459e-07
-4.85195e-06
1.97873e-07
-4.84175e-06
2.64167e-08
-4.80889e-06
-1.56469e-07
-4.75228e-06
-3.48982e-07
-4.67084e-06
-5.48885e-07
-4.56352e-06
-7.53449e-07
-4.42936e-06
-9.5938e-07
-4.26755e-06
-1.16276e-06
-4.0776e-06
-1.359e-06
-3.85946e-06
-1.54284e-06
-3.61374e-06
-1.70838e-06
-3.3419e-06
-1.84925e-06
-3.0465e-06
-1.95884e-06
-2.73139e-06
-2.03067e-06
-2.40181e-06
-2.05888e-06
-2.06446e-06
-2.0389e-06
-1.7273e-06
-1.9681e-06
-1.39922e-06
-1.84647e-06
-1.08954e-06
-1.67714e-06
-8.07279e-07
-1.46664e-06
-5.60469e-07
-1.22488e-06
-3.55428e-07
-9.64671e-07
-1.96277e-07
-7.01052e-07
-8.47252e-08
-4.50342e-07
-2.01612e-08
-2.29285e-07
-5.49735e-08
-3.19605e-09
4.57191e-09
-1.26999e-08
2.20653e-08
-2.81959e-08
4.44163e-08
-4.92216e-08
6.9107e-08
-7.52376e-08
9.43695e-08
-1.0568e-07
1.18967e-07
-1.40002e-07
1.4212e-07
-1.77706e-07
1.63432e-07
-2.18365e-07
1.82808e-07
-2.61637e-07
2.00376e-07
-3.07267e-07
2.16422e-07
-3.55094e-07
2.31336e-07
-4.0504e-07
2.45563e-07
-4.5711e-07
2.59571e-07
-5.11386e-07
2.73826e-07
-5.68011e-07
2.88773e-07
-6.27189e-07
3.04825e-07
-6.89174e-07
3.22359e-07
-7.54261e-07
3.41712e-07
-8.22781e-07
3.63182e-07
-8.95091e-07
3.87027e-07
-9.71568e-07
4.13465e-07
-1.0526e-06
4.42676e-07
-1.13857e-06
4.748e-07
-1.22987e-06
5.09931e-07
-1.32686e-06
5.48113e-07
-1.42987e-06
5.89332e-07
-1.53918e-06
6.3351e-07
-1.65502e-06
6.80488e-07
-1.77753e-06
7.30019e-07
-1.90676e-06
7.81756e-07
-2.04266e-06
8.35237e-07
-2.18503e-06
8.89876e-07
-2.33354e-06
9.44958e-07
-2.4877e-06
9.99629e-07
-2.64685e-06
1.0529e-06
-2.81016e-06
1.10366e-06
-2.97665e-06
1.15068e-06
-3.14516e-06
1.19263e-06
-3.3144e-06
1.2281e-06
-3.48297e-06
1.25566e-06
-3.64936e-06
1.27388e-06
-3.81203e-06
1.28135e-06
-3.9694e-06
1.27675e-06
-4.11991e-06
1.25887e-06
-4.26206e-06
1.22664e-06
-4.39441e-06
1.17917e-06
-4.51561e-06
1.11576e-06
-4.62444e-06
1.03593e-06
-4.71975e-06
9.39382e-07
-4.8005e-06
8.26054e-07
-4.86573e-06
6.96086e-07
-4.9145e-06
5.49831e-07
-4.9459e-06
3.87859e-07
-4.95899e-06
2.10972e-07
-4.9528e-06
2.02232e-08
-4.92625e-06
-1.83024e-07
-4.87815e-06
-3.97076e-07
-4.80724e-06
-6.198e-07
-4.71213e-06
-8.48559e-07
-4.5914e-06
-1.08011e-06
-4.44367e-06
-1.31049e-06
-4.26769e-06
-1.53498e-06
-4.06256e-06
-1.74797e-06
-3.8279e-06
-1.94303e-06
-3.56417e-06
-2.11299e-06
-3.2729e-06
-2.25011e-06
-2.95705e-06
-2.34652e-06
-2.62121e-06
-2.39472e-06
-2.27175e-06
-2.38836e-06
-1.9168e-06
-2.32306e-06
-1.56594e-06
-2.19733e-06
-1.22971e-06
-2.01337e-06
-9.18804e-07
-1.77754e-06
-6.43202e-07
-1.50048e-06
-4.11252e-07
-1.19662e-06
-2.28975e-07
-8.83328e-07
-9.96788e-08
-5.79638e-07
-2.39617e-08
-3.05002e-07
-7.89352e-08
-4.11205e-09
8.68395e-09
-1.60206e-08
3.39739e-08
-3.5091e-08
6.34867e-08
-6.05756e-08
9.45916e-08
-9.169e-08
1.25484e-07
-1.27667e-07
1.54944e-07
-1.67798e-07
1.82251e-07
-2.11461e-07
2.07095e-07
-2.58139e-07
2.29486e-07
-3.07426e-07
2.49663e-07
-3.5903e-07
2.68026e-07
-4.12764e-07
2.8507e-07
-4.68543e-07
3.01342e-07
-5.26371e-07
3.17399e-07
-5.8633e-07
3.33786e-07
-6.48573e-07
3.51016e-07
-7.13308e-07
3.69561e-07
-7.80795e-07
3.89846e-07
-8.51331e-07
4.12248e-07
-9.25244e-07
4.37096e-07
-1.00289e-06
4.64669e-07
-1.08462e-06
4.952e-07
-1.17082e-06
5.28873e-07
-1.26184e-06
5.65822e-07
-1.35803e-06
6.06123e-07
-1.45971e-06
6.49793e-07
-1.56716e-06
6.96777e-07
-1.68059e-06
7.46938e-07
-1.80014e-06
8.00046e-07
-1.92589e-06
8.55768e-07
-2.05779e-06
9.1365e-07
-2.19566e-06
9.73112e-07
-2.33922e-06
1.03344e-06
-2.48802e-06
1.09376e-06
-2.64147e-06
1.15308e-06
-2.79883e-06
1.21026e-06
-2.95919e-06
1.26403e-06
-3.12152e-06
1.31301e-06
-3.28466e-06
1.35576e-06
-3.44734e-06
1.39078e-06
-3.60822e-06
1.41655e-06
-3.76594e-06
1.4316e-06
-3.9191e-06
1.43451e-06
-4.06634e-06
1.424e-06
-4.20638e-06
1.39891e-06
-4.338e-06
1.35826e-06
-4.46009e-06
1.30125e-06
-4.57163e-06
1.22731e-06
-4.67175e-06
1.13604e-06
-4.75963e-06
1.02726e-06
-4.83455e-06
9.00973e-07
-4.89582e-06
7.57362e-07
-4.94278e-06
5.9679e-07
-4.97472e-06
4.19796e-07
-4.99085e-06
2.27107e-07
-4.99029e-06
1.96606e-08
-4.97199e-06
-2.01326e-07
-4.93472e-06
-4.34349e-07
-4.87704e-06
-6.77476e-07
-4.79733e-06
-9.28271e-07
-4.69377e-06
-1.18367e-06
-4.56444e-06
-1.43983e-06
-4.40739e-06
-1.69202e-06
-4.22086e-06
-1.9345e-06
-4.00343e-06
-2.16046e-06
-3.75441e-06
-2.36201e-06
-3.47413e-06
-2.53039e-06
-3.16437e-06
-2.65628e-06
-2.82873e-06
-2.73036e-06
-2.47292e-06
-2.74416e-06
-2.10491e-06
-2.69107e-06
-1.73474e-06
-2.5675e-06
-1.37406e-06
-2.37405e-06
-1.03531e-06
-2.11628e-06
-7.30673e-07
-1.80512e-06
-4.70862e-07
-1.45643e-06
-2.6419e-07
-1.09e-06
-1.15921e-07
-7.27906e-07
-2.81423e-08
-3.92781e-07
-1.07078e-07
-5.0836e-09
1.37676e-08
-1.95394e-08
4.84297e-08
-4.23858e-08
8.63331e-08
-7.25629e-08
1.24769e-07
-1.09016e-07
1.61937e-07
-1.50754e-07
1.96681e-07
-1.96887e-07
2.28384e-07
-2.46658e-07
2.56866e-07
-2.99446e-07
2.82275e-07
-3.54777e-07
3.04994e-07
-4.1231e-07
3.25559e-07
-4.71833e-07
3.44593e-07
-5.33244e-07
3.62753e-07
-5.96541e-07
3.80696e-07
-6.61804e-07
3.99049e-07
-7.29186e-07
4.18398e-07
-7.98896e-07
4.3927e-07
-8.71189e-07
4.62139e-07
-9.46358e-07
4.87417e-07
-1.02472e-06
5.15458e-07
-1.10661e-06
5.46559e-07
-1.19237e-06
5.80961e-07
-1.28234e-06
6.18844e-07
-1.37685e-06
6.60328e-07
-1.47619e-06
7.05466e-07
-1.58063e-06
7.54236e-07
-1.69039e-06
8.06533e-07
-1.8056e-06
8.62153e-07
-1.92635e-06
9.20789e-07
-2.05259e-06
9.8201e-07
-2.1842e-06
1.04526e-06
-2.32091e-06
1.10983e-06
-2.46235e-06
1.17487e-06
-2.60798e-06
1.23939e-06
-2.75715e-06
1.30225e-06
-2.90905e-06
1.36217e-06
-3.06278e-06
1.41775e-06
-3.21729e-06
1.46752e-06
-3.37147e-06
1.50994e-06
-3.52414e-06
1.54345e-06
-3.67409e-06
1.5665e-06
-3.82012e-06
1.57763e-06
-3.96106e-06
1.57545e-06
-4.0958e-06
1.55874e-06
-4.22333e-06
1.52644e-06
-4.34274e-06
1.47767e-06
-4.45323e-06
1.41175e-06
-4.55412e-06
1.3282e-06
-4.64482e-06
1.22674e-06
-4.72483e-06
1.10727e-06
-4.7937e-06
9.69846e-07
-4.85101e-06
8.14667e-07
-4.8963e-06
6.42077e-07
-4.92905e-06
4.52551e-07
-4.94866e-06
2.4671e-07
-4.95433e-06
2.53353e-08
-4.9451e-06
-2.10556e-07
-4.91975e-06
-4.59699e-07
-4.87679e-06
-7.20441e-07
-4.81442e-06
-9.90641e-07
-4.73055e-06
-1.26753e-06
-4.62283e-06
-1.54754e-06
-4.48872e-06
-1.82614e-06
-4.32561e-06
-2.09761e-06
-4.1311e-06
-2.35497e-06
-3.90326e-06
-2.58985e-06
-3.64104e-06
-2.7926e-06
-3.34481e-06
-2.95251e-06
-3.0168e-06
-3.05837e-06
-2.66167e-06
-3.0993e-06
-2.28675e-06
-3.06599e-06
-1.90218e-06
-2.95208e-06
-1.52048e-06
-2.75574e-06
-1.15579e-06
-2.48097e-06
-8.22618e-07
-2.13829e-06
-5.34411e-07
-1.74464e-06
-3.02207e-07
-1.32221e-06
-1.33678e-07
-8.96435e-07
-3.27917e-08
-4.93668e-07
-1.39869e-07
-6.11037e-09
1.98779e-08
-2.32512e-08
6.55706e-08
-5.00642e-08
1.13146e-07
-8.51479e-08
1.59852e-07
-1.27152e-07
2.03941e-07
-1.74839e-07
2.44368e-07
-2.27123e-07
2.80669e-07
-2.83095e-07
3.12838e-07
-3.42026e-07
3.41205e-07
-4.0336e-07
3.66328e-07
-4.66706e-07
3.88905e-07
-5.31817e-07
4.09704e-07
-5.98573e-07
4.29509e-07
-6.66959e-07
4.49081e-07
-7.37048e-07
4.69139e-07
-8.08987e-07
4.90336e-07
-8.82977e-07
5.1326e-07
-9.59264e-07
5.38426e-07
-1.03813e-06
5.66279e-07
-1.11986e-06
5.97196e-07
-1.20479e-06
6.31483e-07
-1.29321e-06
6.69381e-07
-1.38543e-06
7.11064e-07
-1.48173e-06
7.56629e-07
-1.58236e-06
8.06097e-07
-1.68752e-06
8.594e-07
-1.79737e-06
9.16376e-07
-1.91197e-06
9.76751e-07
-2.03131e-06
1.04013e-06
-2.15529e-06
1.10599e-06
-2.2837e-06
1.17366e-06
-2.41619e-06
1.24232e-06
-2.55233e-06
1.31101e-06
-2.69154e-06
1.3786e-06
-2.83311e-06
1.44383e-06
-2.97625e-06
1.50531e-06
-3.12006e-06
1.56156e-06
-3.26355e-06
1.61102e-06
-3.40571e-06
1.6521e-06
-3.54549e-06
1.68322e-06
-3.68184e-06
1.70285e-06
-3.81377e-06
1.70956e-06
-3.94035e-06
1.70203e-06
-4.06074e-06
1.67913e-06
-4.17419e-06
1.6399e-06
-4.28009e-06
1.58357e-06
-4.37793e-06
1.50958e-06
-4.4673e-06
1.41757e-06
-4.54789e-06
1.30734e-06
-4.61947e-06
1.17885e-06
-4.6818e-06
1.03218e-06
-4.7347e-06
8.67561e-07
-4.7779e-06
6.8528e-07
-4.81109e-06
4.85739e-07
-4.83381e-06
2.6943e-07
-4.84543e-06
3.69632e-08
-4.84512e-06
-2.10871e-07
-4.83174e-06
-4.73083e-07
-4.80383e-06
-7.48348e-07
-4.75957e-06
-1.0349e-06
-4.69673e-06
-1.33037e-06
-4.61266e-06
-1.63161e-06
-4.50436e-06
-1.93443e-06
-4.36855e-06
-2.23342e-06
-4.20186e-06
-2.52165e-06
-4.00116e-06
-2.79056e-06
-3.76395e-06
-3.02982e-06
-3.48893e-06
-3.22753e-06
-3.17668e-06
-3.37062e-06
-2.83029e-06
-3.44569e-06
-2.45598e-06
-3.44029e-06
-2.06344e-06
-3.34462e-06
-1.66565e-06
-3.15353e-06
-1.27822e-06
-2.8684e-06
-9.18037e-07
-2.49848e-06
-6.01558e-07
-2.06112e-06
-3.43017e-07
-1.58075e-06
-1.53031e-07
-1.08642e-06
-3.79556e-08
-6.08743e-07
-1.77825e-07
-7.19338e-09
2.70713e-08
-2.71568e-08
8.5534e-08
-5.81215e-08
1.44111e-07
-9.83134e-08
2.00044e-07
-1.46059e-07
2.51687e-07
-1.99853e-07
2.98162e-07
-2.58397e-07
3.39213e-07
-3.20618e-07
3.75058e-07
-3.85665e-07
4.06252e-07
-4.52899e-07
4.33562e-07
-5.2187e-07
4.57877e-07
-5.92294e-07
4.80128e-07
-6.64025e-07
5.0124e-07
-7.37032e-07
5.22088e-07
-8.11376e-07
5.43483e-07
-8.8719e-07
5.66151e-07
-9.64665e-07
5.90734e-07
-1.04403e-06
6.1779e-07
-1.12554e-06
6.47791e-07
-1.20947e-06
6.81129e-07
-1.29611e-06
7.18118e-07
-1.38572e-06
7.58994e-07
-1.47857e-06
8.03913e-07
-1.57489e-06
8.52947e-07
-1.67487e-06
9.06078e-07
-1.77866e-06
9.63189e-07
-1.88634e-06
1.02405e-06
-1.99791e-06
1.08832e-06
-2.1133e-06
1.15552e-06
-2.23234e-06
1.22503e-06
-2.35474e-06
1.29607e-06
-2.48014e-06
1.36772e-06
-2.60803e-06
1.4389e-06
-2.73783e-06
1.5084e-06
-2.86884e-06
1.57484e-06
-3.00029e-06
1.63676e-06
-3.13134e-06
1.69261e-06
-3.26111e-06
1.74079e-06
-3.3887e-06
1.77969e-06
-3.51324e-06
1.80776e-06
-3.63387e-06
1.82349e-06
-3.74982e-06
1.82551e-06
-3.8604e-06
1.81261e-06
-3.96502e-06
1.78374e-06
-4.06319e-06
1.73807e-06
-4.15455e-06
1.67493e-06
-4.23886e-06
1.59389e-06
-4.31594e-06
1.49466e-06
-4.38572e-06
1.37712e-06
-4.44816e-06
1.24128e-06
-4.50325e-06
1.08728e-06
-4.55099e-06
9.15292e-07
-4.5913e-06
7.2559e-07
-4.62404e-06
5.18485e-07
-4.64896e-06
2.94345e-07
-4.6656e-06
5.36076e-08
-4.6733e-06
-2.03174e-07
-4.67109e-06
-4.75293e-07
-4.65765e-06
-7.61785e-07
-4.63125e-06
-1.06131e-06
-4.58964e-06
-1.37198e-06
-4.53008e-06
-1.69117e-06
-4.44926e-06
-2.01525e-06
-4.3434e-06
-2.33928e-06
-4.20835e-06
-2.65671e-06
-4.03984e-06
-2.95906e-06
-3.83393e-06
-3.23572e-06
-3.58758e-06
-3.47388e-06
-3.29939e-06
-3.65882e-06
-2.97048e-06
-3.7746e-06
-2.60539e-06
-3.80538e-06
-2.21269e-06
-3.73731e-06
-1.80526e-06
-3.56097e-06
-1.39973e-06
-3.27393e-06
-1.01526e-06
-2.88295e-06
-6.715e-07
-2.40488e-06
-3.86336e-07
-1.86591e-06
-1.73932e-07
-1.29882e-06
-4.36432e-08
-7.39032e-07
-2.21468e-07
-8.33531e-09
3.54066e-08
-3.12625e-08
1.08461e-07
-6.65651e-08
1.79414e-07
-1.12061e-07
2.45541e-07
-1.65726e-07
3.05352e-07
-2.25762e-07
3.58198e-07
-2.90641e-07
4.04092e-07
-3.59113e-07
4.4353e-07
-4.30199e-07
4.77338e-07
-5.03169e-07
5.06532e-07
-5.77511e-07
5.32219e-07
-6.52899e-07
5.55516e-07
-7.29158e-07
5.77499e-07
-8.06236e-07
5.99167e-07
-8.84179e-07
6.21425e-07
-9.63102e-07
6.45074e-07
-1.04318e-06
6.70809e-07
-1.12461e-06
6.99226e-07
-1.20764e-06
7.30819e-07
-1.29251e-06
7.65995e-07
-1.37946e-06
8.05067e-07
-1.46872e-06
8.48261e-07
-1.56052e-06
8.95713e-07
-1.65504e-06
9.47462e-07
-1.75241e-06
1.00345e-06
-1.85272e-06
1.0635e-06
-1.95601e-06
1.12734e-06
-2.06221e-06
1.19452e-06
-2.17119e-06
1.26451e-06
-2.28274e-06
1.33658e-06
-2.39654e-06
1.40987e-06
-2.51218e-06
1.48336e-06
-2.62917e-06
1.55589e-06
-2.74691e-06
1.62614e-06
-2.86477e-06
1.69269e-06
-2.98204e-06
1.75402e-06
-3.09796e-06
1.80853e-06
-3.21179e-06
1.85462e-06
-3.32278e-06
1.89069e-06
-3.43024e-06
1.91522e-06
-3.53352e-06
1.92677e-06
-3.63207e-06
1.92406e-06
-3.72542e-06
1.90595e-06
-3.81321e-06
1.87153e-06
-3.8952e-06
1.82006e-06
-3.97124e-06
1.75098e-06
-4.04131e-06
1.66395e-06
-4.10543e-06
1.55878e-06
-4.16371e-06
1.4354e-06
-4.2163e-06
1.29387e-06
-4.26335e-06
1.13433e-06
-4.30503e-06
9.56972e-07
-4.34145e-06
7.62007e-07
-4.37264e-06
5.49676e-07
-4.39853e-06
3.20234e-07
-4.41888e-06
7.39548e-08
-4.43322e-06
-1.88828e-07
-4.44082e-06