/*--------------------------------*- C++ -*----------------------------------*\
  =========                 |
  \\      /  F ield         | OpenFOAM: The Open Source CFD Toolbox
   \\    /   O peration     | Website:  https://openfoam.org
    \\  /    A nd           | Version:  7
     \\/     M anipulation  |
\*---------------------------------------------------------------------------*/
FoamFile
{
    version     2.0;
    format      ascii;
    class       volVectorField;
    location    "0.5";
    object      U;
}
// * * * * * * * * * * * * * * * * * * * * * * * * * * * * * * * * * * * * * //

dimensions      [0 1 -1 0 0 0 0];

internalField   nonuniform List<vector> 
3200
(
(1.21499e-05 -1.20698e-05 0)
(6.18882e-05 -3.12521e-05 0)
(0.000140911 -3.58301e-05 0)
(0.000214677 -3.07953e-05 0)
(0.00026483 -2.13471e-05 0)
(0.000284482 -1.05373e-05 0)
(0.000272086 -4.82537e-10 0)
(0.000229079 9.44818e-06 0)
(0.000158481 1.74993e-05 0)
(6.39044e-05 2.4126e-05 0)
(-5.10887e-05 2.94722e-05 0)
(-0.000183369 3.37713e-05 0)
(-0.000330449 3.72883e-05 0)
(-0.00049058 4.02939e-05 0)
(-0.00066278 4.30494e-05 0)
(-0.000846802 4.57918e-05 0)
(-0.00104308 4.87274e-05 0)
(-0.00125265 5.2035e-05 0)
(-0.00147711 5.58694e-05 0)
(-0.00171851 6.03637e-05 0)
(-0.00197934 6.56336e-05 0)
(-0.00226243 7.17823e-05 0)
(-0.00257101 7.89075e-05 0)
(-0.00290859 8.71052e-05 0)
(-0.003279 9.64732e-05 0)
(-0.0036864 0.000107113 0)
(-0.00413523 0.000119129 0)
(-0.00463024 0.000132634 0)
(-0.00517648 0.00014774 0)
(-0.00577929 0.000164563 0)
(-0.00644423 0.000183216 0)
(-0.00717708 0.000203805 0)
(-0.00798377 0.000226423 0)
(-0.00887024 0.000251138 0)
(-0.00984238 0.000277989 0)
(-0.0109059 0.000306973 0)
(-0.0120659 0.00033803 0)
(-0.0133271 0.000371034 0)
(-0.0146931 0.000405773 0)
(-0.0161664 0.000441933 0)
(-0.0177478 0.000479081 0)
(-0.0194362 0.000516647 0)
(-0.0212282 0.000553908 0)
(-0.0231174 0.000589968 0)
(-0.0250941 0.000623748 0)
(-0.027145 0.000653981 0)
(-0.0292524 0.000679203 0)
(-0.0313942 0.00069777 0)
(-0.0335432 0.000707872 0)
(-0.0356674 0.000707569 0)
(-0.0377294 0.000694844 0)
(-0.0396871 0.000667678 0)
(-0.0414936 0.000624144 0)
(-0.0430985 0.000562534 0)
(-0.0444485 0.0004815 0)
(-0.0454891 0.00038022 0)
(-0.0461664 0.000258517 0)
(-0.0464303 0.000117226 0)
(-0.0462346 -4.03463e-05 0)
(-0.0455422 -0.00021254 0)
(-0.0443294 -0.000394506 0)
(-0.0425866 -0.000580083 0)
(-0.0403224 -0.000762012 0)
(-0.0375662 -0.000932094 0)
(-0.0343694 -0.00108161 0)
(-0.0308058 -0.00120191 0)
(-0.0269702 -0.00128516 0)
(-0.0229751 -0.00132507 0)
(-0.0189461 -0.00131767 0)
(-0.015015 -0.00126184 0)
(-0.0113123 -0.00115961 0)
(-0.00795928 -0.00101609 0)
(-0.00506004 -0.000838996 0)
(-0.00269525 -0.00063799 0)
(-0.00091671 -0.000424012 0)
(0.000255484 -0.000209355 0)
(0.000837542 -8.20539e-06 0)
(0.000891512 0.000157298 0)
(0.000570172 0.000245345 0)
(0.00017145 0.000171664 0)
(3.20655e-05 -6.22996e-05 0)
(0.000131191 -0.000129762 0)
(0.000264325 -0.000138288 0)
(0.000372488 -0.00010782 0)
(0.000422149 -5.66855e-05 0)
(0.000398366 2.71142e-06 0)
(0.000296071 6.26722e-05 0)
(0.000116672 0.000118787 0)
(-0.000134482 0.000168931 0)
(-0.000450213 0.000212494 0)
(-0.000823022 0.00024984 0)
(-0.0012461 0.000281931 0)
(-0.00171395 0.000310045 0)
(-0.00222271 0.000335595 0)
(-0.00277034 0.000360009 0)
(-0.00335659 0.000384647 0)
(-0.00398292 0.000410758 0)
(-0.0046524 0.000439464 0)
(-0.00536954 0.000471762 0)
(-0.00614017 0.000508535 0)
(-0.00697125 0.000550566 0)
(-0.00787081 0.00059857 0)
(-0.00884786 0.000653207 0)
(-0.00991228 0.000715107 0)
(-0.0110748 0.000784878 0)
(-0.0123469 0.000863119 0)
(-0.013741 0.000950416 0)
(-0.0152699 0.00104734 0)
(-0.0169472 0.00115442 0)
(-0.0187871 0.00127215 0)
(-0.0208041 0.00140093 0)
(-0.0230128 0.00154105 0)
(-0.0254279 0.00169261 0)
(-0.0280635 0.00185554 0)
(-0.0309331 0.00202944 0)
(-0.0340488 0.0022136 0)
(-0.0374209 0.00240687 0)
(-0.0410571 0.00260763 0)
(-0.0449619 0.00281367 0)
(-0.0491355 0.00302213 0)
(-0.0535731 0.00322944 0)
(-0.058264 0.00343122 0)
(-0.0631903 0.00362229 0)
(-0.0683259 0.00379656 0)
(-0.0736361 0.00394712 0)
(-0.0790759 0.0040662 0)
(-0.0845899 0.00414533 0)
(-0.0901118 0.00417541 0)
(-0.0955637 0.00414695 0)
(-0.100857 0.00405038 0)
(-0.105892 0.00387632 0)
(-0.110561 0.00361611 0)
(-0.114748 0.0032623 0)
(-0.11833 0.00280926 0)
(-0.121186 0.00225388 0)
(-0.123194 0.00159632 0)
(-0.124238 0.000840652 0)
(-0.124214 -4.37832e-06 0)
(-0.123037 -0.00092291 0)
(-0.120643 -0.00189658 0)
(-0.116998 -0.00289932 0)
(-0.112103 -0.00389942 0)
(-0.105999 -0.00486047 0)
(-0.098772 -0.00574267 0)
(-0.0905533 -0.00650482 0)
(-0.0815196 -0.00710689 0)
(-0.0718901 -0.00751308 0)
(-0.0619197 -0.00769505 0)
(-0.0518891 -0.00763498 0)
(-0.0420921 -0.00732808 0)
(-0.0328204 -0.00678404 0)
(-0.0243473 -0.00602718 0)
(-0.0169106 -0.00509529 0)
(-0.0106977 -0.00403737 0)
(-0.00583169 -0.00291147 0)
(-0.00235958 -0.00178451 0)
(-0.00024097 -0.000735203 0)
(0.000668029 0.000131516 0)
(0.000663561 0.000656303 0)
(0.000240965 0.000562169 0)
(3.77805e-05 -0.000143654 0)
(0.000141752 -0.000264034 0)
(0.000260315 -0.000258782 0)
(0.000325028 -0.000171423 0)
(0.000297426 -3.74709e-05 0)
(0.000159789 0.000117108 0)
(-9.42081e-05 0.000274834 0)
(-0.00046296 0.000425018 0)
(-0.000939783 0.000562033 0)
(-0.00151551 0.000683891 0)
(-0.00218043 0.00079108 0)
(-0.00292567 0.000885699 0)
(-0.00374412 0.000970795 0)
(-0.00463091 0.00104988 0)
(-0.00558375 0.00112662 0)
(-0.0066029 0.00120455 0)
(-0.00769118 0.00128703 0)
(-0.00885376 0.00137711 0)
(-0.010098 0.00147753 0)
(-0.0114332 0.00159077 0)
(-0.0128706 0.00171904 0)
(-0.0144229 0.00186436 0)
(-0.0161043 0.00202858 0)
(-0.0179304 0.00221345 0)
(-0.019918 0.0024206 0)
(-0.0220851 0.0026516 0)
(-0.0244508 0.00290791 0)
(-0.0270348 0.00319089 0)
(-0.0298577 0.0035017 0)
(-0.0329407 0.0038413 0)
(-0.0363048 0.0042103 0)
(-0.0399712 0.00460888 0)
(-0.0439602 0.00503666 0)
(-0.0482908 0.00549252 0)
(-0.05298 0.00597447 0)
(-0.0580422 0.00647947 0)
(-0.0634877 0.00700321 0)
(-0.0693221 0.00753997 0)
(-0.0755451 0.0080824 0)
(-0.0821487 0.00862139 0)
(-0.0891167 0.0091459 0)
(-0.0964225 0.0096429 0)
(-0.104029 0.0100973 0)
(-0.111885 0.010492 0)
(-0.119928 0.0108081 0)
(-0.128079 0.0110251 0)
(-0.136246 0.0111209 0)
(-0.144322 0.0110732 0)
(-0.152185 0.0108591 0)
(-0.1597 0.0104566 0)
(-0.166721 0.00984553 0)
(-0.173092 0.00900825 0)
(-0.178652 0.00793132 0)
(-0.183238 0.00660672 0)
(-0.186687 0.00503331 0)
(-0.188847 0.00321842 0)
(-0.189575 0.00117913 0)
(-0.188751 -0.00105698 0)
(-0.186279 -0.00344929 0)
(-0.182097 -0.00594513 0)
(-0.176183 -0.0084797 0)
(-0.168558 -0.0109766 0)
(-0.159297 -0.0133498 0)
(-0.148526 -0.0155071 0)
(-0.136431 -0.0173543 0)
(-0.123252 -0.0188005 0)
(-0.109282 -0.0197649 0)
(-0.0948561 -0.0201835 0)
(-0.0803459 -0.0200154 0)
(-0.06614 -0.019249 0)
(-0.0526273 -0.0179055 0)
(-0.0401765 -0.0160401 0)
(-0.029114 -0.0137408 0)
(-0.0197023 -0.0111251 0)
(-0.0121203 -0.00833568 0)
(-0.00644498 -0.00553903 0)
(-0.00263569 -0.00293034 0)
(-0.000517338 -0.000749385 0)
(0.000246441 0.000686145 0)
(0.000171458 0.00089082 0)
(3.32421e-05 -0.000220586 0)
(0.000108496 -0.000371093 0)
(0.000159792 -0.000321427 0)
(0.000120302 -0.000143214 0)
(-4.72226e-05 0.000109109 0)
(-0.000359676 0.000394988 0)
(-0.000822199 0.000686296 0)
(-0.00143174 0.000965324 0)
(-0.00218007 0.00122246 0)
(-0.00305642 0.00145411 0)
(-0.00404967 0.00166096 0)
(-0.0051498 0.00184655 0)
(-0.00634894 0.0020162 0)
(-0.00764204 0.00217613 0)
(-0.00902719 0.00233291 0)
(-0.0105056 0.00249301 0)
(-0.0120818 0.00266258 0)
(-0.0137632 0.00284729 0)
(-0.0155598 0.0030523 0)
(-0.0174845 0.00328226 0)
(-0.0195521 0.00354139 0)
(-0.0217797 0.00383349 0)
(-0.0241862 0.00416205 0)
(-0.0267922 0.0045303 0)
(-0.0296198 0.00494122 0)
(-0.0326924 0.00539759 0)
(-0.0360344 0.00590187 0)
(-0.0396713 0.00645624 0)
(-0.043629 0.00706241 0)
(-0.0479335 0.00772152 0)
(-0.0526106 0.00843394 0)
(-0.057685 0.00919907 0)
(-0.0631798 0.010015 0)
(-0.0691156 0.0108785 0)
(-0.0755094 0.0117842 0)
(-0.0823734 0.0127249 0)
(-0.0897139 0.0136907 0)
(-0.0975297 0.0146692 0)
(-0.105811 0.0156447 0)
(-0.114537 0.0165985 0)
(-0.123675 0.0175082 0)
(-0.133179 0.0183483 0)
(-0.142989 0.0190899 0)
(-0.15303 0.0197008 0)
(-0.163207 0.0201465 0)
(-0.173413 0.02039 0)
(-0.183522 0.0203936 0)
(-0.193392 0.0201191 0)
(-0.20287 0.0195298 0)
(-0.211788 0.0185912 0)
(-0.21997 0.0172734 0)
(-0.227234 0.0155525 0)
(-0.233396 0.0134129 0)
(-0.238275 0.0108488 0)
(-0.241697 0.00786682 0)
(-0.2435 0.00448765 0)
(-0.243544 0.000748133 0)
(-0.24171 -0.00329618 0)
(-0.237909 -0.0075737 0)
(-0.232092 -0.0119918 0)
(-0.224252 -0.0164397 0)
(-0.214427 -0.0207893 0)
(-0.202711 -0.024899 0)
(-0.189254 -0.0286177 0)
(-0.174267 -0.0317916 0)
(-0.158017 -0.0342725 0)
(-0.140833 -0.0359276 0)
(-0.12309 -0.0366502 0)
(-0.105206 -0.0363702 0)
(-0.0876242 -0.0350641 0)
(-0.0707942 -0.032762 0)
(-0.0551494 -0.0295512 0)
(-0.0410816 -0.0255758 0)
(-0.0289156 -0.0210329 0)
(-0.0188834 -0.0161666 0)
(-0.0111024 -0.011264 0)
(-0.0055558 -0.00665778 0)
(-0.00207682 -0.00273837 0)
(-0.000350968 1.59083e-05 0)
(6.07823e-05 0.000941454 0)
(2.27147e-05 -0.000271139 0)
(4.5128e-05 -0.000407327 0)
(-1.29245e-05 -0.000271762 0)
(-0.000206844 3.59256e-05 0)
(-0.000567564 0.000442251 0)
(-0.00110825 0.000892374 0)
(-0.00183067 0.00134793 0)
(-0.00272887 0.00178453 0)
(-0.00379235 0.00218888 0)
(-0.00500861 0.00255609 0)
(-0.00636528 0.00288739 0)
(-0.00785161 0.00318819 0)
(-0.00945955 0.00346652 0)
(-0.0111843 0.00373183 0)
(-0.0130249 0.00399413 0)
(-0.0149838 0.00426334 0)
(-0.0170673 0.00454896 0)
(-0.0192851 0.00485977 0)
(-0.0216501 0.00520381 0)
(-0.0241781 0.00558837 0)
(-0.0268876 0.00602004 0)
(-0.0297994 0.00650475 0)
(-0.0329364 0.00704794 0)
(-0.0363235 0.00765451 0)
(-0.0399871 0.00832895 0)
(-0.0439548 0.00907523 0)
(-0.0482555 0.00989679 0)
(-0.0529184 0.0107964 0)
(-0.0579731 0.0117759 0)
(-0.0634485 0.0128361 0)
(-0.0693726 0.0139763 0)
(-0.0757712 0.0151941 0)
(-0.0826674 0.0164849 0)
(-0.0900801 0.0178414 0)
(-0.0980226 0.0192533 0)
(-0.106502 0.020707 0)
(-0.115516 0.0221845 0)
(-0.125053 0.0236638 0)
(-0.13509 0.0251182 0)
(-0.14559 0.0265162 0)
(-0.156503 0.0278213 0)
(-0.167761 0.0289924 0)
(-0.179282 0.0299843 0)
(-0.190963 0.0307476 0)
(-0.202689 0.0312305 0)
(-0.214323 0.0313794 0)
(-0.225716 0.0311407 0)
(-0.236704 0.030462 0)
(-0.247113 0.0292945 0)
(-0.256759 0.0275949 0)
(-0.265454 0.0253278 0)
(-0.273009 0.0224677 0)
(-0.279236 0.0190018 0)
(-0.283958 0.014932 0)
(-0.287005 0.0102776 0)
(-0.288228 0.00507712 0)
(-0.287494 -0.000609378 0)
(-0.284699 -0.00669775 0)
(-0.279767 -0.013082 0)
(-0.272658 -0.0196299 0)
(-0.26337 -0.0261854 0)
(-0.251949 -0.0325704 0)
(-0.238489 -0.0385882 0)
(-0.223141 -0.0440294 0)
(-0.206112 -0.0486801 0)
(-0.187674 -0.052332 0)
(-0.168156 -0.0547959 0)
(-0.147948 -0.0559158 0)
(-0.127487 -0.0555846 0)
(-0.107248 -0.0537584 0)
(-0.0877205 -0.050468 0)
(-0.0693912 -0.045827 0)
(-0.0527103 -0.0400333 0)
(-0.0380638 -0.0333653 0)
(-0.025744 -0.0261743 0)
(-0.0159226 -0.0188765 0)
(-0.00862867 -0.0119497 0)
(-0.0037321 -0.00593736 0)
(-0.000977675 -0.00146858 0)
(-4.93909e-05 0.00065474 0)
(8.54529e-06 -0.000282398 0)
(-3.95472e-05 -0.000342675 0)
(-0.000240524 -6.93485e-05 0)
(-0.000630602 0.000412345 0)
(-0.00123004 0.00101098 0)
(-0.00204564 0.00165851 0)
(-0.00307372 0.00230738 0)
(-0.00430395 0.00292747 0)
(-0.00572257 0.00350265 0)
(-0.00731488 0.00402746 0)
(-0.0090671 0.00450435 0)
(-0.0109679 0.00494117 0)
(-0.0130091 0.00534923 0)
(-0.0151867 0.00574171 0)
(-0.0175005 0.00613256 0)
(-0.0199547 0.0065356 0)
(-0.0225574 0.00696406 0)
(-0.0253207 0.00743026 0)
(-0.02826 0.00794547 0)
(-0.0313939 0.00851991 0)
(-0.034744 0.00916279 0)
(-0.0383343 0.00988242 0)
(-0.0421911 0.0106863 0)
(-0.0463425 0.011581 0)
(-0.0508183 0.0125726 0)
(-0.0556492 0.013666 0)
(-0.0608667 0.0148654 0)
(-0.0665027 0.0161737 0)
(-0.0725881 0.0175923 0)
(-0.0791531 0.0191208 0)
(-0.0862252 0.0207564 0)
(-0.0938291 0.0224936 0)
(-0.101985 0.0243234 0)
(-0.110706 0.026233 0)
(-0.120001 0.028205 0)
(-0.129867 0.0302168 0)
(-0.140291 0.0322403 0)
(-0.151249 0.0342415 0)
(-0.162703 0.0361798 0)
(-0.174598 0.0380089 0)
(-0.186864 0.0396761 0)
(-0.199416 0.0411233 0)
(-0.21215 0.0422875 0)
(-0.224943 0.0431025 0)
(-0.23766 0.0434997 0)
(-0.25015 0.0434104 0)
(-0.262247 0.0427675 0)
(-0.27378 0.0415082 0)
(-0.284566 0.0395759 0)
(-0.294422 0.036923 0)
(-0.303164 0.0335135 0)
(-0.310611 0.0293254 0)
(-0.316588 0.024353 0)
(-0.320933 0.0186095 0)
(-0.323495 0.0121292 0)
(-0.324139 0.00496956 0)
(-0.32275 -0.0027866 0)
(-0.319234 -0.0110304 0)
(-0.313525 -0.0196232 0)
(-0.305582 -0.028398 0)
(-0.2954 -0.0371588 0)
(-0.283013 -0.0456824 0)
(-0.268497 -0.0537217 0)
(-0.251982 -0.0610116 0)
(-0.233652 -0.0672779 0)
(-0.213754 -0.0722502 0)
(-0.192603 -0.0756766 0)
(-0.170577 -0.0773432 0)
(-0.148117 -0.0770941 0)
(-0.125715 -0.0748518 0)
(-0.103896 -0.0706353 0)
(-0.0831943 -0.0645731 0)
(-0.0641222 -0.056909 0)
(-0.0471357 -0.0479992 0)
(-0.0325999 -0.0383033 0)
(-0.0207586 -0.0283705 0)
(-0.0117065 -0.0188278 0)
(-0.00537168 -0.0103725 0)
(-0.00157838 -0.00377681 0)
(-0.000146466 4.4902e-05 0)
(-8.11524e-06 -0.000245252 0)
(-0.000140191 -0.000153451 0)
(-0.00051118 0.000319412 0)
(-0.00113232 0.00102564 0)
(-0.00200943 0.00185786 0)
(-0.00314054 0.00273659 0)
(-0.00451452 0.00360669 0)
(-0.00611513 0.00443378 0)
(-0.00792435 0.00520014 0)
(-0.00992456 0.0059009 0)
(-0.0121003 0.00654061 0)
(-0.0144393 0.00713037 0)
(-0.0169335 0.00768542 0)
(-0.0195795 0.00822324 0)
(-0.0223783 0.00876214 0)
(-0.0253356 0.00932027 0)
(-0.0284614 0.00991492 0)
(-0.0317698 0.0105622 0)
(-0.0352785 0.0112768 0)
(-0.0390088 0.0120722 0)
(-0.0429847 0.0129602 0)
(-0.0472327 0.0139515 0)
(-0.0517817 0.0150558 0)
(-0.0566622 0.0162812 0)
(-0.061906 0.0176351 0)
(-0.0675456 0.0191231 0)
(-0.0736141 0.0207495 0)
(-0.0801436 0.0225169 0)
(-0.0871651 0.0244252 0)
(-0.0947075 0.0264719 0)
(-0.102796 0.0286508 0)
(-0.111452 0.0309518 0)
(-0.120689 0.0333602 0)
(-0.130515 0.0358554 0)
(-0.140929 0.0384109 0)
(-0.151917 0.0409935 0)
(-0.163454 0.0435626 0)
(-0.175502 0.0460703 0)
(-0.188006 0.0484608 0)
(-0.200897 0.0506714 0)
(-0.214087 0.0526325 0)
(-0.227475 0.054269 0)
(-0.24094 0.0555013 0)
(-0.254349 0.0562474 0)
(-0.267555 0.056425 0)
(-0.280399 0.0559535 0)
(-0.292715 0.0547569 0)
(-0.304333 0.0527662 0)
(-0.315078 0.0499222 0)
(-0.32478 0.0461781 0)
(-0.333271 0.0415018 0)
(-0.340389 0.0358781 0)
(-0.345982 0.0293111 0)
(-0.349909 0.0218261 0)
(-0.352042 0.0134717 0)
(-0.352263 0.00432179 0)
(-0.350471 -0.00552271 0)
(-0.34658 -0.0159317 0)
(-0.340523 -0.0267434 0)
(-0.33225 -0.0377632 0)
(-0.32174 -0.0487634 0)
(-0.308999 -0.0594827 0)
(-0.294071 -0.0696296 0)
(-0.277044 -0.0788869 0)
(-0.258062 -0.0869212 0)
(-0.23733 -0.093396 0)
(-0.215126 -0.09799 0)
(-0.191804 -0.100419 0)
(-0.167793 -0.100464 0)
(-0.143595 -0.0979945 0)
(-0.119762 -0.0930006 0)
(-0.0968805 -0.0856086 0)
(-0.0755316 -0.0760948 0)
(-0.0562545 -0.0648855 0)
(-0.0395051 -0.052546 0)
(-0.0256188 -0.0397606 0)
(-0.0147761 -0.0273101 0)
(-0.00698106 -0.0160492 0)
(-0.00214819 -0.00689308 0)
(-0.000230985 -0.000862687 0)
(-2.66625e-05 -0.000152646 0)
(-0.000253554 0.000179704 0)
(-0.000817011 0.000922756 0)
(-0.00169878 0.0019097 0)
(-0.00288701 0.00301973 0)
(-0.00436871 0.0041642 0)
(-0.00612346 0.00528246 0)
(-0.00812765 0.00633777 0)
(-0.0103579 0.00731251 0)
(-0.0127928 0.00820378 0)
(-0.0154148 0.00901944 0)
(-0.0182106 0.00977481 0)
(-0.0211719 0.0104898 0)
(-0.0242957 0.0111868 0)
(-0.0275841 0.0118889 0)
(-0.0310444 0.0126189 0)
(-0.0346882 0.0133984 0)
(-0.0385314 0.0142476 0)
(-0.0425939 0.0151847 0)
(-0.0468986 0.0162262 0)
(-0.0514716 0.0173868 0)
(-0.0563412 0.0186795 0)
(-0.0615379 0.0201157 0)
(-0.0670935 0.0217052 0)
(-0.0730407 0.023456 0)
(-0.0794127 0.025374 0)
(-0.086242 0.0274631 0)
(-0.0935599 0.0297244 0)
(-0.101395 0.0321558 0)
(-0.109774 0.0347512 0)
(-0.118718 0.0374998 0)
(-0.128241 0.0403855 0)
(-0.138351 0.0433858 0)
(-0.149046 0.0464711 0)
(-0.160315 0.0496041 0)
(-0.172132 0.0527392 0)
(-0.184461 0.0558219 0)
(-0.197249 0.0587894 0)
(-0.210427 0.06157 0)
(-0.223913 0.0640848 0)
(-0.237605 0.0662478 0)
(-0.251392 0.0679685 0)
(-0.265144 0.0691532 0)
(-0.278723 0.0697073 0)
(-0.291981 0.0695386 0)
(-0.304763 0.0685594 0)
(-0.316912 0.0666896 0)
(-0.32827 0.0638591 0)
(-0.33868 0.0600108 0)
(-0.347995 0.0551027 0)
(-0.356069 0.0491094 0)
(-0.362767 0.0420245 0)
(-0.367965 0.0338621 0)
(-0.371545 0.0246581 0)
(-0.373398 0.0144718 0)
(-0.373425 0.00338829 0)
(-0.371534 -0.00847958 0)
(-0.36764 -0.0209889 0)
(-0.361668 -0.0339635 0)
(-0.353552 -0.0471911 0)
(-0.343244 -0.0604214 0)
(-0.330712 -0.0733642 0)
(-0.315955 -0.0856905 0)
(-0.299009 -0.097036 0)
(-0.27996 -0.107009 0)
(-0.258956 -0.115205 0)
(-0.236224 -0.121223 0)
(-0.212074 -0.124698 0)
(-0.186913 -0.125325 0)
(-0.161236 -0.122903 0)
(-0.135622 -0.117367 0)
(-0.110706 -0.108816 0)
(-0.0871483 -0.0975425 0)
(-0.0655847 -0.0840277 0)
(-0.0465818 -0.0689374 0)
(-0.0305892 -0.0530926 0)
(-0.0178949 -0.0374346 0)
(-0.00859582 -0.0229846 0)
(-0.00270588 -0.0108107 0)
(-0.0003086 -0.00205123 0)
(-4.6781e-05 1.23751e-06 0)
(-0.000377714 0.000672891 0)
(-0.00115285 0.00176459 0)
(-0.00232064 0.00309354 0)
(-0.00384882 0.00452832 0)
(-0.0057113 0.00597372 0)
(-0.00787664 0.0073661 0)
(-0.0103124 0.00866862 0)
(-0.0129888 0.00986574 0)
(-0.0158799 0.0109582 0)
(-0.0189654 0.0119587 0)
(-0.0222304 0.0128877 0)
(-0.0256664 0.0137708 0)
(-0.0292706 0.0146358 0)
(-0.033046 0.0155112 0)
(-0.0370009 0.0164245 0)
(-0.0411484 0.0174021 0)
(-0.0455059 0.018468 0)
(-0.0500948 0.0196441 0)
(-0.0549393 0.0209499 0)
(-0.0600668 0.0224028 0)
(-0.0655066 0.0240179 0)
(-0.0712898 0.025808 0)
(-0.0774484 0.027784 0)
(-0.0840149 0.0299541 0)
(-0.0910216 0.0323241 0)
(-0.0984992 0.0348964 0)
(-0.106477 0.0376699 0)
(-0.114979 0.0406391 0)
(-0.124028 0.0437934 0)
(-0.133639 0.047116 0)
(-0.143819 0.0505832 0)
(-0.154567 0.0541637 0)
(-0.165873 0.0578173 0)
(-0.177713 0.0614947 0)
(-0.190052 0.0651369 0)
(-0.202841 0.0686752 0)
(-0.216014 0.0720314 0)
(-0.229493 0.0751188 0)
(-0.243185 0.0778431 0)
(-0.256983 0.0801044 0)
(-0.270768 0.0817993 0)
(-0.284412 0.0828235 0)
(-0.297778 0.0830743 0)
(-0.310726 0.0824541 0)
(-0.323114 0.0808729 0)
(-0.334801 0.0782512 0)
(-0.345651 0.0745225 0)
(-0.355532 0.0696351 0)
(-0.364321 0.0635542 0)
(-0.371904 0.0562629 0)
(-0.378172 0.0477633 0)
(-0.383027 0.0380774 0)
(-0.386374 0.0272483 0)
(-0.388124 0.0153415 0)
(-0.388191 0.00244679 0)
(-0.386487 -0.011319 0)
(-0.382926 -0.0258089 0)
(-0.377422 -0.040842 0)
(-0.369888 -0.0561986 0)
(-0.360243 -0.0716159 0)
(-0.348414 -0.0867847 0)
(-0.334346 -0.101347 0)
(-0.318016 -0.114898 0)
(-0.299441 -0.126992 0)
(-0.2787 -0.137151 0)
(-0.25595 -0.144893 0)
(-0.231444 -0.149753 0)
(-0.205544 -0.151325 0)
(-0.178729 -0.149307 0)
(-0.151587 -0.143549 0)
(-0.124801 -0.134097 0)
(-0.0991101 -0.121226 0)
(-0.0752625 -0.105456 0)
(-0.0539549 -0.0875421 0)
(-0.0357753 -0.0684421 0)
(-0.0211433 -0.0492676 0)
(-0.010269 -0.0312224 0)
(-0.00327769 -0.015546 0)
(-0.000386091 -0.00351861 0)
(-6.83658e-05 0.000221478 0)
(-0.000511538 0.00134004 0)
(-0.00151524 0.00286562 0)
(-0.00299127 0.00460229 0)
(-0.00488441 0.00641094 0)
(-0.00715359 0.00819279 0)
(-0.00975467 0.00988403 0)
(-0.012645 0.0114503 0)
(-0.0157873 0.0128804 0)
(-0.0191506 0.0141808 0)
(-0.0227108 0.0153703 0)
(-0.0264515 0.0164761 0)
(-0.0303631 0.0175302 0)
(-0.0344429 0.0185665 0)
(-0.0386945 0.0196193 0)
(-0.043127 0.0207215 0)
(-0.0477546 0.0219037 0)
(-0.0525956 0.0231941 0)
(-0.0576721 0.0246182 0)
(-0.0630095 0.0261983 0)
(-0.0686353 0.027954 0)
(-0.0745791 0.0299024 0)
(-0.0808715 0.0320574 0)
(-0.0875439 0.0344302 0)
(-0.0946273 0.0370288 0)
(-0.102152 0.0398578 0)
(-0.110145 0.0429177 0)
(-0.118633 0.0462039 0)
(-0.127635 0.0497067 0)
(-0.137166 0.0534096 0)
(-0.147236 0.0572888 0)
(-0.157844 0.061312 0)
(-0.16898 0.0654378 0)
(-0.180623 0.0696145 0)
(-0.192742 0.0737803 0)
(-0.205289 0.0778628 0)
(-0.218206 0.0817789 0)
(-0.23142 0.0854365 0)
(-0.244845 0.088735 0)
(-0.258383 0.0915674 0)
(-0.271926 0.0938226 0)
(-0.285356 0.0953881 0)
(-0.298551 0.096153 0)
(-0.311385 0.096011 0)
(-0.323732 0.0948638 0)
(-0.335469 0.0926234 0)
(-0.346478 0.089215 0)
(-0.356646 0.0845785 0)
(-0.365872 0.0786701 0)
(-0.374059 0.0714634 0)
(-0.381121 0.0629493 0)
(-0.386978 0.0531369 0)
(-0.391555 0.0420534 0)
(-0.394779 0.029745 0)
(-0.396576 0.0162778 0)
(-0.39687 0.00174008 0)
(-0.395579 -0.013755 0)
(-0.392615 -0.0300651 0)
(-0.387877 -0.0470135 0)
(-0.38126 -0.064383 0)
(-0.372651 -0.0819095 0)
(-0.361935 -0.0992751 0)
(-0.349005 -0.116104 0)
(-0.333771 -0.131958 0)
(-0.316178 -0.146344 0)
(-0.296224 -0.158716 0)
(-0.273982 -0.168501 0)
(-0.249627 -0.175127 0)
(-0.223456 -0.178065 0)
(-0.195907 -0.176885 0)
(-0.167562 -0.171317 0)
(-0.139136 -0.161311 0)
(-0.111445 -0.147094 0)
(-0.0853545 -0.12919 0)
(-0.0617105 -0.108428 0)
(-0.0412644 -0.0859005 0)
(-0.0245954 -0.0628998 0)
(-0.0120516 -0.0408339 0)
(-0.00388854 -0.0211418 0)
(-0.000469519 -0.0052779 0)
(-9.13737e-05 0.000512769 0)
(-0.000654366 0.00219375 0)
(-0.00190192 0.00424424 0)
(-0.00370599 0.00645796 0)
(-0.00598601 0.00869121 0)
(-0.00868409 0.0108448 0)
(-0.0117418 0.012858 0)
(-0.015105 0.0147016 0)
(-0.0187279 0.0163716 0)
(-0.0225736 0.0178821 0)
(-0.026614 0.0192599 0)
(-0.0308303 0.0205403 0)
(-0.0352116 0.0217625 0)
(-0.039755 0.0229674 0)
(-0.0444641 0.0241954 0)
(-0.0493486 0.0254847 0)
(-0.054423 0.0268707 0)
(-0.0597062 0.0283857 0)
(-0.0652208 0.0300581 0)
(-0.0709919 0.0319131 0)
(-0.0770469 0.0339723 0)
(-0.0834146 0.0362539 0)
(-0.0901244 0.0387726 0)
(-0.0972059 0.0415395 0)
(-0.104688 0.0445616 0)
(-0.112596 0.0478414 0)
(-0.120956 0.0513765 0)
(-0.129787 0.0551584 0)
(-0.139104 0.0591718 0)
(-0.148916 0.0633936 0)
(-0.159224 0.0677918 0)
(-0.170019 0.072325 0)
(-0.181284 0.0769409 0)
(-0.192989 0.0815764 0)
(-0.205092 0.086157 0)
(-0.217542 0.0905972 0)
(-0.23027 0.0948014 0)
(-0.243201 0.0986648 0)
(-0.256244 0.102075 0)
(-0.269304 0.104916 0)
(-0.282275 0.107069 0)
(-0.295048 0.108416 0)
(-0.307512 0.108843 0)
(-0.319556 0.108246 0)
(-0.331074 0.106528 0)
(-0.341964 0.103608 0)
(-0.352134 0.0994184 0)
(-0.361499 0.0939066 0)
(-0.369983 0.0870381 0)
(-0.377518 0.0787943 0)
(-0.384044 0.069173 0)
(-0.389504 0.0581879 0)
(-0.393846 0.0458682 0)
(-0.397016 0.0322593 0)
(-0.398953 0.0174231 0)
(-0.399593 0.00144059 0)
(-0.398858 -0.0155848 0)
(-0.396658 -0.0335225 0)
(-0.392887 -0.0522086 0)
(-0.387422 -0.0714378 0)
(-0.380125 -0.090955 0)
(-0.370844 -0.110446 0)
(-0.359422 -0.129527 0)
(-0.345708 -0.147743 0)
(-0.329568 -0.164559 0)
(-0.310914 -0.179369 0)
(-0.289723 -0.191514 0)
(-0.266072 -0.200304 0)
(-0.240169 -0.205071 0)
(-0.212383 -0.205229 0)
(-0.183259 -0.200348 0)
(-0.153524 -0.190238 0)
(-0.124056 -0.175026 0)
(-0.0958365 -0.155202 0)
(-0.069873 -0.13164 0)
(-0.0471053 -0.105556 0)
(-0.0283031 -0.0784339 0)
(-0.0139827 -0.0519119 0)
(-0.00455804 -0.0276631 0)
(-0.000563569 -0.00735476 0)
(-0.0001158 0.000879596 0)
(-0.000805849 0.00324569 0)
(-0.0023115 0.00591718 0)
(-0.00446164 0.00868016 0)
(-0.00714797 0.0113896 0)
(-0.010294 0.0139495 0)
(-0.0138254 0.0163053 0)
(-0.0176754 0.0184368 0)
(-0.0217888 0.0203492 0)
(-0.0261217 0.0220671 0)
(-0.0306418 0.0236272 0)
(-0.0353272 0.0250739 0)
(-0.0401656 0.0264551 0)
(-0.0451531 0.0278192 0)
(-0.0502932 0.029213 0)
(-0.0555953 0.0306803 0)
(-0.0610743 0.0322614 0)
(-0.0667489 0.033992 0)
(-0.0726412 0.0359038 0)
(-0.0787758 0.0380242 0)
(-0.085179 0.0403765 0)
(-0.0918781 0.0429796 0)
(-0.0989005 0.0458484 0)
(-0.106273 0.048993 0)
(-0.114021 0.0524189 0)
(-0.122168 0.0561259 0)
(-0.130732 0.0601078 0)
(-0.139728 0.0643512 0)
(-0.149166 0.0688347 0)
(-0.159047 0.0735278 0)
(-0.169364 0.0783899 0)
(-0.180104 0.0833699 0)
(-0.191239 0.0884048 0)
(-0.202733 0.0934201 0)
(-0.21454 0.0983296 0)
(-0.226601 0.103036 0)
(-0.238846 0.107433 0)
(-0.251198 0.111405 0)
(-0.26357 0.114832 0)
(-0.275869 0.117591 0)
(-0.287999 0.119559 0)
(-0.299863 0.120617 0)
(-0.311366 0.120653 0)
(-0.322416 0.119565 0)
(-0.332927 0.117264 0)
(-0.342823 0.113676 0)
(-0.352035 0.108742 0)
(-0.360503 0.102419 0)
(-0.368178 0.0946813 0)
(-0.375016 0.0855167 0)
(-0.38098 0.0749284 0)
(-0.386035 0.0629323 0)
(-0.390147 0.0495572 0)
(-0.393279 0.0348441 0)
(-0.395385 0.0188475 0)
(-0.396412 0.00163705 0)
(-0.396289 -0.0166984 0)
(-0.39493 -0.0360456 0)
(-0.392226 -0.0562602 0)
(-0.388048 -0.0771573 0)
(-0.382239 -0.0985009 0)
(-0.37462 -0.119992 0)
(-0.364993 -0.141256 0)
(-0.353151 -0.16183 0)
(-0.338886 -0.181157 0)
(-0.32202 -0.198583 0)
(-0.302425 -0.213368 0)
(-0.280064 -0.224708 0)
(-0.255032 -0.231784 0)
(-0.227595 -0.233827 0)
(-0.198228 -0.230208 0)
(-0.167633 -0.220545 0)
(-0.136725 -0.204806 0)
(-0.106589 -0.183391 0)
(-0.0783976 -0.157173 0)
(-0.0532999 -0.127473 0)
(-0.0322885 -0.09597 0)
(-0.0160855 -0.0645598 0)
(-0.00529917 -0.0351899 0)
(-0.000671508 -0.00978392 0)
(-0.000141674 0.00132636 0)
(-0.000965888 0.00450699 0)
(-0.00274328 0.0079 0)
(-0.00525632 0.0112867 0)
(-0.00836649 0.0145241 0)
(-0.0119768 0.0175232 0)
(-0.0159957 0.0202397 0)
(-0.0203425 0.0226653 0)
(-0.0249515 0.0248181 0)
(-0.0297715 0.0267353 0)
(-0.0347651 0.0284656 0)
(-0.0399071 0.0300641 0)
(-0.0451831 0.0315884 0)
(-0.0505882 0.033095 0)
(-0.056125 0.0346377 0)
(-0.0618026 0.0362658 0)
(-0.0676352 0.0380243 0)
(-0.0736409 0.0399525 0)
(-0.079841 0.0420848 0)
(-0.0862588 0.0444507 0)
(-0.0929189 0.0470743 0)
(-0.0998463 0.0499751 0)
(-0.107066 0.0531673 0)
(-0.114601 0.0566598 0)
(-0.122474 0.0604556 0)
(-0.130702 0.0645513 0)
(-0.1393 0.0689363 0)
(-0.148276 0.0735916 0)
(-0.157635 0.0784891 0)
(-0.167371 0.0835907 0)
(-0.177472 0.088847 0)
(-0.187915 0.0941972 0)
(-0.198671 0.0995683 0)
(-0.209698 0.104875 0)
(-0.220945 0.110021 0)
(-0.232351 0.114899 0)
(-0.243848 0.119394 0)
(-0.255361 0.123383 0)
(-0.266809 0.12674 0)
(-0.278108 0.129339 0)
(-0.289175 0.131057 0)
(-0.299927 0.131776 0)
(-0.310287 0.131389 0)
(-0.320183 0.129801 0)
(-0.329551 0.126929 0)
(-0.338338 0.12271 0)
(-0.346497 0.117093 0)
(-0.353993 0.110044 0)
(-0.360798 0.101546 0)
(-0.366889 0.0915914 0)
(-0.372249 0.0801875 0)
(-0.376863 0.067351 0)
(-0.380711 0.0531078 0)
(-0.383773 0.037493 0)
(-0.386019 0.0205513 0)
(-0.387405 0.00233902 0)
(-0.387875 -0.0170725 0)
(-0.38735 -0.0375913 0)
(-0.385728 -0.0590975 0)
(-0.382878 -0.0814337 0)
(-0.378638 -0.104392 0)
(-0.372814 -0.127702 0)
(-0.365177 -0.151009 0)
(-0.355474 -0.173864 0)
(-0.343435 -0.195706 0)
(-0.328793 -0.215851 0)
(-0.311313 -0.233493 0)
(-0.290832 -0.247725 0)
(-0.267309 -0.257573 0)
(-0.240879 -0.262068 0)
(-0.211903 -0.260348 0)
(-0.181015 -0.251779 0)
(-0.149128 -0.236104 0)
(-0.117403 -0.213557 0)
(-0.0871702 -0.184951 0)
(-0.0598011 -0.151672 0)
(-0.0365436 -0.11559 0)
(-0.0183666 -0.0788802 0)
(-0.00611854 -0.0438092 0)
(-0.000795388 -0.0126054 0)
(-0.000169057 0.0018575 0)
(-0.00113461 0.00598858 0)
(-0.00319721 0.0102076 0)
(-0.0060893 0.0142939 0)
(-0.00963952 0.0181106 0)
(-0.0137285 0.0215797 0)
(-0.0182459 0.0246713 0)
(-0.0230958 0.0273927 0)
(-0.0282015 0.0297784 0)
(-0.0335036 0.0318809 0)
(-0.0389591 0.0337628 0)
(-0.0445392 0.0354919 0)
(-0.0502272 0.0371362 0)
(-0.0560164 0.038761 0)
(-0.0619084 0.0404273 0)
(-0.0679115 0.0421905 0)
(-0.0740388 0.0440996 0)
(-0.0803073 0.0461977 0)
(-0.0867369 0.0485215 0)
(-0.093349 0.0511019 0)
(-0.100166 0.0539638 0)
(-0.10721 0.0571264 0)
(-0.114504 0.0606029 0)
(-0.122066 0.0644003 0)
(-0.129914 0.0685188 0)
(-0.138062 0.0729511 0)
(-0.14652 0.0776817 0)
(-0.15529 0.0826857 0)
(-0.164371 0.0879282 0)
(-0.173752 0.0933633 0)
(-0.183416 0.0989331 0)
(-0.193337 0.104568 0)
(-0.20348 0.110185 0)
(-0.213801 0.115691 0)
(-0.224248 0.120979 0)
(-0.234763 0.125936 0)
(-0.245281 0.130439 0)
(-0.255733 0.134362 0)
(-0.266046 0.137575 0)
(-0.27615 0.139952 0)
(-0.285975 0.141373 0)
(-0.295454 0.141724 0)
(-0.30453 0.140903 0)
(-0.313149 0.138824 0)
(-0.32127 0.135415 0)
(-0.328859 0.130618 0)
(-0.335891 0.124394 0)
(-0.34235 0.116717 0)
(-0.348226 0.107575 0)
(-0.353515 0.0969665 0)
(-0.358216 0.0849005 0)
(-0.362329 0.0713933 0)
(-0.365852 0.0564674 0)
(-0.368777 0.0401512 0)
(-0.37109 0.022479 0)
(-0.372761 0.00349285 0)
(-0.373749 -0.0167544 0)
(-0.373989 -0.0381939 0)
(-0.373391 -0.0607339 0)
(-0.371833 -0.0842492 0)
(-0.369158 -0.108568 0)
(-0.365167 -0.133458 0)
(-0.359617 -0.158602 0)
(-0.352224 -0.18358 0)
(-0.342666 -0.20785 0)
(-0.330601 -0.230721 0)
(-0.315691 -0.251348 0)
(-0.297644 -0.268737 0)
(-0.276268 -0.281769 0)
(-0.251535 -0.289271 0)
(-0.223655 -0.290114 0)
(-0.193143 -0.283366 0)
(-0.160858 -0.268462 0)
(-0.127994 -0.245387 0)
(-0.0960147 -0.214808 0)
(-0.066517 -0.178114 0)
(-0.0410313 -0.137341 0)
(-0.0208174 -0.094962 0)
(-0.00701713 -0.053607 0)
(-0.000936322 -0.0158614 0)
(-0.000198044 0.00247758 0)
(-0.00131241 0.00770151 0)
(-0.00367395 0.0128548 0)
(-0.00696112 0.0177178 0)
(-0.0109669 0.0221638 0)
(-0.0155474 0.0261307 0)
(-0.0205719 0.0296072 0)
(-0.0259284 0.0326209 0)
(-0.0315278 0.035226 0)
(-0.0373025 0.037493 0)
(-0.0432034 0.0395012 0)
(-0.0491976 0.0413321 0)
(-0.0552656 0.0430655 0)
(-0.0613992 0.0447762 0)
(-0.0675984 0.0465327 0)
(-0.07387 0.0483961 0)
(-0.080226 0.0504199 0)
(-0.0866819 0.0526504 0)
(-0.0932555 0.0551263 0)
(-0.0999662 0.0578796 0)
(-0.106834 0.0609355 0)
(-0.113878 0.0643125 0)
(-0.121116 0.0680224 0)
(-0.128565 0.0720698 0)
(-0.136238 0.0764517 0)
(-0.144144 0.0811564 0)
(-0.152288 0.0861635 0)
(-0.160669 0.091442 0)
(-0.169279 0.0969504 0)
(-0.178106 0.102635 0)
(-0.187127 0.108431 0)
(-0.196314 0.114259 0)
(-0.20563 0.12003 0)
(-0.215032 0.125641 0)
(-0.22447 0.130981 0)
(-0.23389 0.13593 0)
(-0.243233 0.14036 0)
(-0.252439 0.144145 0)
(-0.261448 0.147154 0)
(-0.270201 0.149264 0)
(-0.278644 0.150357 0)
(-0.286729 0.150328 0)
(-0.294415 0.149081 0)
(-0.301667 0.146538 0)